/*--------------------------------*- C++ -*----------------------------------*\
  =========                 |
  \\      /  F ield         | OpenFOAM: The Open Source CFD Toolbox
   \\    /   O peration     | Website:  https://openfoam.org
    \\  /    A nd           | Version:  10
     \\/     M anipulation  |
\*---------------------------------------------------------------------------*/
FoamFile
{
    format      ascii;
    class       volScalarField;
    location    "0.1";
    object      p;
}
// * * * * * * * * * * * * * * * * * * * * * * * * * * * * * * * * * * * * * //

dimensions      [0 2 -2 0 0 0 0];

internalField   nonuniform List<scalar> 
400
(
-0.181665
-0.356799
-0.435759
-0.480008
-0.505029
-0.517737
-0.521975
-0.520208
-0.514294
-0.505796
-0.495977
-0.485862
-0.476564
-0.46901
-0.463701
-0.46095
-0.460835
-0.462793
-0.465457
-0.467065
-0.353936
-0.414398
-0.459612
-0.490725
-0.509967
-0.519897
-0.522733
-0.520295
-0.514068
-0.505434
-0.495661
-0.485673
-0.476415
-0.468885
-0.463766
-0.461364
-0.461622
-0.463929
-0.466935
-0.468694
-0.428671
-0.45489
-0.480421
-0.500602
-0.513919
-0.520713
-0.521997
-0.518972
-0.512733
-0.504355
-0.494974
-0.485469
-0.476688
-0.469538
-0.464736
-0.462683
-0.463342
-0.466044
-0.46937
-0.470944
-0.470586
-0.483253
-0.497969
-0.510616
-0.519082
-0.522925
-0.522525
-0.518655
-0.512112
-0.503727
-0.494489
-0.485176
-0.476569
-0.469566
-0.464938
-0.463126
-0.464077
-0.467114
-0.470836
-0.472246
-0.497721
-0.504302
-0.5133
-0.521253
-0.526218
-0.527579
-0.525456
-0.520448
-0.513174
-0.504243
-0.494548
-0.484847
-0.47588
-0.468505
-0.463546
-0.461546
-0.462532
-0.465862
-0.470001
-0.471329
-0.518695
-0.522293
-0.528343
-0.533472
-0.535956
-0.535251
-0.531382
-0.524896
-0.51639
-0.50631
-0.49544
-0.484575
-0.474516
-0.46612
-0.460226
-0.457471
-0.458027
-0.461347
-0.465677
-0.46691
-0.538661
-0.540622
-0.545105
-0.54845
-0.549016
-0.546422
-0.540685
-0.532318
-0.521993
-0.510113
-0.497353
-0.484531
-0.472555
-0.462348
-0.454774
-0.450528
-0.449936
-0.452601
-0.456601
-0.457485
-0.561143
-0.56202
-0.565462
-0.567386
-0.566122
-0.561495
-0.553603
-0.542903
-0.530135
-0.51577
-0.500419
-0.484875
-0.470116
-0.457152
-0.446916
-0.440184
-0.437442
-0.438482
-0.441397
-0.441437
-0.588918
-0.588803
-0.591097
-0.591398
-0.587966
-0.580831
-0.570287
-0.55674
-0.540919
-0.523377
-0.504725
-0.485705
-0.467265
-0.450449
-0.436285
-0.425717
-0.419458
-0.417567
-0.418424
-0.417086
-0.624364
-0.623029
-0.623543
-0.6215
-0.615184
-0.604776
-0.590843
-0.573821
-0.554345
-0.53296
-0.510279
-0.486972
-0.463874
-0.441969
-0.422356
-0.406219
-0.394636
-0.388111
-0.385623
-0.382397
-0.669713
-0.666695
-0.664347
-0.658681
-0.648314
-0.633558
-0.615233
-0.593907
-0.570109
-0.544241
-0.516811
-0.488375
-0.459579
-0.431258
-0.404519
-0.380795
-0.361647
-0.348301
-0.340715
-0.334866
-0.727287
-0.721907
-0.715135
-0.703873
-0.687632
-0.66701
-0.64302
-0.616375
-0.587507
-0.556577
-0.523772
-0.489411
-0.453898
-0.417849
-0.382278
-0.348776
-0.319412
-0.296438
-0.281372
-0.271723
-0.799642
-0.790883
-0.777424
-0.757729
-0.732952
-0.704389
-0.673223
-0.640195
-0.605499
-0.569001
-0.530381
-0.489471
-0.446325
-0.401286
-0.355161
-0.309513
-0.266831
-0.230662
-0.204963
-0.190064
-0.889505
-0.875802
-0.85233
-0.820344
-0.783535
-0.74441
-0.704353
-0.663891
-0.622677
-0.580094
-0.535332
-0.487618
-0.436415
-0.381542
-0.32333
-0.26303
-0.203402
-0.149567
-0.109121
-0.0873996
-0.999422
-0.978591
-0.940368
-0.891048
-0.83793
-0.785116
-0.734173
-0.685141
-0.636985
-0.588269
-0.537494
-0.483199
-0.424085
-0.359127
-0.287763
-0.210514
-0.130112
-0.0533989
0.00702931
0.0375837
-1.13103
-1.10043
-1.04098
-0.967838
-0.893385
-0.823506
-0.759774
-0.70132
-0.646089
-0.591643
-0.535584
-0.475595
-0.409421
-0.334915
-0.250264
-0.154772
-0.0504633
0.0546089
0.141724
0.18421
-1.28351
-1.24015
-1.15093
-1.0462
-0.945277
-0.855725
-0.778166
-0.710256
-0.648557
-0.589441
-0.529452
-0.465245
-0.393491
-0.310846
-0.214113
-0.100888
0.0287014
0.167056
0.289147
0.347357
-1.45004
-1.39045
-1.26144
-1.11838
-0.988055
-0.878045
-0.787118
-0.710848
-0.644108
-0.58197
-0.519842
-0.45332
-0.378054
-0.289665
-0.183662
-0.055617
0.0974421
0.270932
0.435915
0.513502
-1.61061
-1.53144
-1.35532
-1.17335
-1.01656
-0.88963
-0.788342
-0.706053
-0.636106
-0.572455
-0.50957
-0.442217
-0.365341
-0.273891
-0.16239
-0.0246328
0.145514
0.348386
0.557692
0.657438
-1.73516
-1.63934
-1.41869
-1.20893
-1.03587
-0.898996
-0.791383
-0.705062
-0.632581
-0.567278
-0.50311
-0.434466
-0.356058
-0.26252
-0.147784
-0.00495451
0.173397
0.392091
0.636089
0.752517
)
;

boundaryField
{
    movingWall
    {
        type            zeroGradient;
    }
    fixedWalls
    {
        type            zeroGradient;
    }
    frontAndBack
    {
        type            empty;
    }
}


// ************************************************************************* //
