/*--------------------------------*- C++ -*----------------------------------*\
  =========                 |
  \\      /  F ield         | OpenFOAM: The Open Source CFD Toolbox
   \\    /   O peration     | Website:  https://openfoam.org
    \\  /    A nd           | Version:  10
     \\/     M anipulation  |
\*---------------------------------------------------------------------------*/
FoamFile
{
    format      ascii;
    class       surfaceScalarField;
    location    "0.1";
    object      phi;
}
// * * * * * * * * * * * * * * * * * * * * * * * * * * * * * * * * * * * * * //

dimensions      [0 3 -1 0 0 0 0];

internalField   nonuniform List<scalar> 
760
(
1.418e-06
1.49797e-06
1.50457e-06
1.48154e-06
9.52721e-07
1.26916e-06
5.21625e-07
1.06874e-06
1.69153e-07
8.94076e-07
-1.20138e-07
7.36745e-07
-3.52122e-07
5.88434e-07
-5.28169e-07
4.44694e-07
-6.48725e-07
3.03692e-07
-7.15519e-07
1.66227e-07
-7.31187e-07
3.61632e-08
-6.99175e-07
-8.18093e-08
-6.26294e-07
-1.82651e-07
-5.23201e-07
-2.59356e-07
-4.024e-07
-3.04166e-07
-2.78511e-07
-3.12061e-07
-1.68466e-07
-2.82316e-07
-8.65787e-08
-2.18458e-07
-3.49928e-08
-1.29469e-07
-3.46741e-08
1.19466e-06
1.70651e-06
1.51634e-06
2.17359e-06
1.15169e-06
2.11986e-06
5.86864e-07
1.92854e-06
-1.73928e-08
1.69267e-06
-5.83353e-07
1.4382e-06
-1.0703e-06
1.17182e-06
-1.45512e-06
8.96989e-07
-1.72471e-06
6.17477e-07
-1.87463e-06
3.38956e-07
-1.90755e-06
7.08739e-08
-1.83049e-06
-1.75236e-07
-1.65667e-06
-3.86908e-07
-1.4085e-06
-5.49901e-07
-1.11578e-06
-6.49326e-07
-8.12635e-07
-6.73875e-07
-5.34039e-07
-6.19386e-07
-3.07595e-07
-4.90562e-07
-1.37919e-07
-3.03242e-07
-9.24502e-08
7.71139e-07
1.34935e-06
1.02352e-06
2.32824e-06
7.43503e-07
2.62564e-06
1.73912e-07
2.60728e-06
-5.16439e-07
2.42104e-06
-1.21093e-06
2.13509e-06
-1.83421e-06
1.78353e-06
-2.33926e-06
1.38794e-06
-2.6978e-06
9.65319e-07
-2.89613e-06
5.31701e-07
-2.93316e-06
1.05656e-07
-2.81679e-06
-2.91737e-07
-2.56411e-06
-6.37982e-07
-2.20399e-06
-9.0952e-07
-1.77612e-06
-1.08285e-06
-1.32718e-06
-1.1385e-06
-9.04534e-07
-1.06585e-06
-5.45411e-07
-8.67019e-07
-2.5484e-07
-5.60916e-07
-1.9094e-07
3.81709e-07
1.18934e-06
4.50384e-07
2.44278e-06
1.33861e-07
3.04714e-06
-4.57065e-07
3.23679e-06
-1.19088e-06
3.14765e-06
-1.95028e-06
2.86559e-06
-2.64642e-06
2.44657e-06
-3.21811e-06
1.93193e-06
-3.62588e-06
1.35548e-06
-3.84816e-06
7.47087e-07
-3.87935e-06
1.37604e-07
-3.72597e-06
-4.39714e-07
-3.40606e-06
-9.50167e-07
-2.95183e-06
-1.3585e-06
-2.40907e-06
-1.63001e-06
-1.83255e-06
-1.73414e-06
-1.27798e-06
-1.6501e-06
-7.90805e-07
-1.37303e-06
-3.77619e-07
-9.20826e-07
-3.36922e-07
4.99371e-08
1.17219e-06
-9.52458e-08
2.65299e-06
-5.16263e-07
3.51804e-06
-1.1658e-06
3.90357e-06
-1.94548e-06
3.91655e-06
-2.74999e-06
3.64567e-06
-3.4899e-06
3.16123e-06
-4.09929e-06
2.52181e-06
-4.53328e-06
1.77853e-06
-4.76476e-06
9.76635e-07
-4.78401e-06
1.60454e-07
-4.59568e-06
-6.23288e-07
-4.21734e-06
-1.32602e-06
-3.68174e-06
-1.8988e-06
-3.0369e-06
-2.29326e-06
-2.34224e-06
-2.46464e-06
-1.66038e-06
-2.37771e-06
-1.04515e-06
-2.01548e-06
-5.05722e-07
-1.3891e-06
-5.33599e-07
-2.30762e-07
1.26734e-06
-5.86814e-07
3.00169e-06
-1.14323e-06
4.10441e-06
-1.88011e-06
4.66138e-06
-2.71906e-06
4.75866e-06
-3.56744e-06
4.48581e-06
-4.34079e-06
3.92447e-06
-4.97423e-06
3.14778e-06
-5.42247e-06
2.22289e-06
-5.65616e-06
1.21062e-06
-5.66221e-06
1.6877e-07
-5.44291e-06
-8.43116e-07
-5.01465e-06
-1.76266e-06
-4.40901e-06
-2.52582e-06
-3.67329e-06
-3.06801e-06
-2.86825e-06
-3.32685e-06
-2.06169e-06
-3.24824e-06
-1.3155e-06
-2.79699e-06
-6.42543e-07
-1.96939e-06
-7.83969e-07
-4.72878e-07
1.45494e-06
-1.02649e-06
3.49476e-06
-1.7278e-06
4.82937e-06
-2.56693e-06
5.53292e-06
-3.4747e-06
5.68673e-06
-4.3684e-06
5.38695e-06
-5.17062e-06
4.72833e-06
-5.82054e-06
3.79804e-06
-6.27593e-06
2.67723e-06
-6.50858e-06
1.44095e-06
-6.50381e-06
1.59536e-07
-6.26127e-06
-1.09629e-06
-5.79491e-06
-2.25212e-06
-5.1335e-06
-3.22903e-06
-4.32103e-06
-3.9441e-06
-3.41628e-06
-4.31315e-06
-2.48944e-06
-4.25768e-06
-1.60906e-06
-3.71708e-06
-7.92591e-07
-2.66338e-06
-1.08983e-06
-6.87749e-07
1.72144e-06
-1.42421e-06
4.12372e-06
-2.26794e-06
5.69176e-06
-3.21099e-06
6.51775e-06
-4.18684e-06
6.69611e-06
-5.12039e-06
6.33877e-06
-5.94289e-06
5.55819e-06
-6.60012e-06
4.45713e-06
-7.05528e-06
3.12925e-06
-7.28422e-06
1.66093e-06
-7.2731e-06
1.32689e-07
-7.01931e-06
-1.37591e-06
-6.53269e-06
-2.78099e-06
-5.83643e-06
-3.99041e-06
-4.96794e-06
-4.9021e-06
-3.98036e-06
-5.40629e-06
-2.94245e-06
-5.39359e-06
-1.92728e-06
-4.76904e-06
-9.57605e-07
-3.46972e-06
-1.4518e-06
-8.83862e-07
2.05655e-06
-1.78903e-06
4.8737e-06
-2.76415e-06
6.67607e-06
-3.79969e-06
7.59835e-06
-4.82929e-06
7.76637e-06
-5.78475e-06
7.31851e-06
-6.60838e-06
6.39053e-06
-7.2561e-06
5.10351e-06
-7.69911e-06
3.56298e-06
-7.91968e-06
1.86305e-06
-7.90725e-06
9.04355e-08
-7.65796e-06
-1.66993e-06
-7.17594e-06
-3.32784e-06
-6.47505e-06
-4.78054e-06
-5.58141e-06
-5.90781e-06
-4.53767e-06
-6.57229e-06
-3.40622e-06
-6.62753e-06
-2.26165e-06
-5.93389e-06
-1.1334e-06
-4.38065e-06
-1.86984e-06
-1.06507e-06
2.4514e-06
-2.12365e-06
5.72528e-06
-3.21036e-06
7.75589e-06
-4.31259e-06
8.74227e-06
-5.36536e-06
8.86061e-06
-6.30889e-06
8.28815e-06
-7.09984e-06
7.18962e-06
-7.70913e-06
5.70684e-06
-8.11986e-06
3.95674e-06
-8.32311e-06
2.0377e-06
-8.31352e-06
3.71974e-08
-8.08701e-06
-1.95934e-06
-7.64088e-06
-3.85953e-06
-6.97593e-06
-5.55372e-06
-6.10127e-06
-6.90658e-06
-5.04238e-06
-7.75387e-06
-3.84863e-06
-7.90797e-06
-2.59162e-06
-7.17372e-06
-1.30937e-06
-5.37639e-06
-2.34109e-06
-1.22821e-06
2.89661e-06
-2.41928e-06
6.65195e-06
-3.58684e-06
8.89111e-06
-4.71339e-06
9.89934e-06
-5.7395e-06
9.92278e-06
-6.6185e-06
9.19159e-06
-7.32582e-06
7.90533e-06
-7.85294e-06
6.22715e-06
-8.20011e-06
4.2836e-06
-8.3703e-06
2.17384e-06
-8.36482e-06
-1.95395e-08
-8.18016e-06
-2.21693e-06
-7.80622e-06
-4.32942e-06
-7.2279e-06
-6.24595e-06
-6.43178e-06
-7.82147e-06
-5.4181e-06
-8.86878e-06
-4.21423e-06
-9.15806e-06
-2.88187e-06
-8.42879e-06
-1.46834e-06
-6.42202e-06
-2.8564e-06
-1.36008e-06
3.37881e-06
-2.64974e-06
7.61341e-06
-3.85185e-06
1.00203e-05
-4.9404e-06
1.09958e-05
-5.86734e-06
1.08749e-05
-6.60756e-06
9.95436e-06
-7.16185e-06
8.47373e-06
-7.54784e-06
6.61581e-06
-7.78817e-06
4.51239e-06
-7.90135e-06
2.25911e-06
-7.89676e-06
-7.08778e-08
-7.77177e-06
-2.4101e-06
-7.50905e-06
-4.68046e-06
-7.07662e-06
-6.77752e-06
-6.43458e-06
-8.55504e-06
-5.54973e-06
-9.81039e-06
-4.41601e-06
-1.02744e-05
-3.07511e-06
-9.61406e-06
-1.58209e-06
-7.46341e-06
-3.39698e-06
-1.43217e-06
3.87486e-06
-2.76103e-06
8.54617e-06
-3.92692e-06
1.10519e-05
-4.88984e-06
1.19278e-05
-5.61984e-06
1.16146e-05
-6.12479e-06
1.04845e-05
-6.43993e-06
8.81869e-06
-6.61411e-06
6.81579e-06
-6.69525e-06
4.6073e-06
-6.71996e-06
2.27944e-06
-6.7075e-06
-1.08244e-07
-6.65678e-06
-2.50534e-06
-6.54416e-06
-4.85206e-06
-6.32199e-06
-7.06052e-06
-5.92278e-06
-8.99486e-06
-5.27353e-06
-1.04487e-05
-4.32252e-06
-1.11225e-05
-3.07834e-06
-1.06097e-05
-1.60136e-06
-8.41695e-06
-3.92954e-06
-1.38904e-06
4.34382e-06
-2.65104e-06
9.35146e-06
-3.6709e-06
1.18533e-05
-4.3887e-06
1.25544e-05
-4.79986e-06
1.20116e-05
-4.95675e-06
1.06725e-05
-4.93778e-06
8.85499e-06
-4.82629e-06
6.76585e-06
-4.69462e-06
4.53032e-06
-4.596e-06
2.21958e-06
-4.56046e-06
-1.25125e-07
-4.59133e-06
-2.47423e-06
-4.66219e-06
-4.79159e-06
-4.71342e-06
-7.01434e-06
-4.65206e-06
-9.02893e-06
-4.36275e-06
-1.06411e-05
-3.73892e-06
-1.15389e-05
-2.74352e-06
-1.12558e-05
-1.44299e-06
-9.16088e-06
-4.40194e-06
-1.12392e-06
4.71569e-06
-2.13127e-06
9.87783e-06
-2.83803e-06
1.22367e-05
-3.15571e-06
1.26894e-05
-3.11078e-06
1.19071e-05
-2.80628e-06
1.03976e-05
-2.36583e-06
8.49848e-06
-1.90502e-06
6.41274e-06
-1.51674e-06
4.25152e-06
-1.26655e-06
2.06753e-06
-1.19273e-06
-1.18885e-07
-1.3047e-06
-2.30071e-06
-1.57868e-06
-4.46706e-06
-1.9506e-06
-6.58358e-06
-2.31009e-06
-8.56762e-06
-2.50537e-06
-1.02547e-05
-2.37579e-06
-1.13502e-05
-1.83534e-06
-1.13618e-05
-9.68536e-07
-9.53525e-06
-4.73713e-06
-4.32336e-07
4.87627e-06
-8.6033e-07
9.90097e-06
-1.01191e-06
1.19476e-05
-7.44958e-07
1.21062e-05
-1.12241e-07
1.11295e-05
7.39092e-07
9.54595e-06
1.65004e-06
7.68323e-06
2.48486e-06
5.72418e-06
3.14158e-06
3.75864e-06
3.55054e-06
1.81983e-06
3.6699e-06
-9.1037e-08
3.48468e-06
-1.98661e-06
3.01159e-06
-3.87743e-06
2.30904e-06
-5.75481e-06
1.48872e-06
-7.56961e-06
7.18294e-07
-9.20198e-06
1.92057e-07
-1.0409e-05
2.41525e-08
-1.07297e-05
6.28348e-08
-9.34364e-06
-4.82238e-06
1.08307e-06
4.65365e-06
1.77559e-06
9.1228e-06
2.49946e-06
1.06883e-05
3.53128e-06
1.05773e-05
4.82806e-06
9.53648e-06
6.23039e-06
8.04563e-06
7.5746e-06
6.38527e-06
8.7304e-06
4.70273e-06
9.60505e-06
3.06329e-06
1.0137e-05
1.48345e-06
1.02883e-05
-4.8313e-08
1.00422e-05
-1.55592e-06
9.40675e-06
-3.06193e-06
8.42492e-06
-4.5746e-06
7.18767e-06
-6.07379e-06
5.8433e-06
-7.48893e-06
4.57378e-06
-8.65318e-06
3.45599e-06
-9.20175e-06
2.10609e-06
-8.36672e-06
-4.50762e-06
4.25257e-06
3.85234e-06
6.89028e-06
7.26811e-06
8.81269e-06
8.24047e-06
1.06723e-05
7.98201e-06
1.25445e-05
7.08789e-06
1.43346e-05
5.90808e-06
1.59266e-05
4.64183e-06
1.72289e-05
3.3916e-06
1.81792e-05
2.2e-06
1.87367e-05
1.07334e-06
1.8876e-05
-3.0835e-09
1.85839e-05
-1.05295e-06
1.78623e-05
-2.09876e-06
1.67331e-05
-3.15439e-06
1.52491e-05
-4.21794e-06
1.35044e-05
-5.25767e-06
1.16092e-05
-6.18167e-06
9.48354e-06
-6.76521e-06
6.07491e-06
-6.45475e-06
-3.64928e-06
1.10668e-05
2.23802e-06
1.652e-05
4.11161e-06
1.95928e-05
4.54635e-06
2.19475e-05
4.3466e-06
2.39655e-05
3.83129e-06
2.57078e-05
3.1773e-06
2.71552e-05
2.48635e-06
2.82797e-05
1.81215e-06
2.9061e-05
1.17698e-06
2.94859e-05
5.83184e-07
2.95452e-05
2.14822e-08
2.92339e-05
-5.21974e-07
2.8551e-05
-1.06025e-06
2.75003e-05
-1.60289e-06
2.60968e-05
-2.15327e-06
2.43742e-05
-2.70069e-06
2.23491e-05
-3.20717e-06
1.97103e-05
-3.57901e-06
1.39348e-05
-3.55952e-06
-2.10544e-06
2.73008e-05
3.43995e-05
3.70411e-05
3.86303e-05
3.98018e-05
4.07187e-05
4.14247e-05
4.19342e-05
4.22545e-05
4.23896e-05
4.23418e-05
4.2112e-05
4.16985e-05
4.1097e-05
4.03051e-05
3.93268e-05
3.81547e-05
3.65521e-05
3.05195e-05
)
;

boundaryField
{
    movingWall
    {
        type            calculated;
        value           uniform 0;
    }
    fixedWalls
    {
        type            calculated;
        value           uniform 0;
    }
    frontAndBack
    {
        type            empty;
        value           nonuniform List<scalar> 0();
    }
}


// ************************************************************************* //
