/*--------------------------------*- C++ -*----------------------------------*\
  =========                 |
  \\      /  F ield         | OpenFOAM: The Open Source CFD Toolbox
   \\    /   O peration     | Website:  https://openfoam.org
    \\  /    A nd           | Version:  10
     \\/     M anipulation  |
\*---------------------------------------------------------------------------*/
FoamFile
{
    format      ascii;
    class       volVectorField;
    location    "0.1";
    object      U;
}
// * * * * * * * * * * * * * * * * * * * * * * * * * * * * * * * * * * * * * //

dimensions      [0 1 -1 0 0 0 0];

internalField   nonuniform List<vector> 
400
(
(0.0203502 0.0210532 0)
(0.0363699 0.0180421 0)
(0.023813 0.0142833 0)
(0.0142959 0.0114672 0)
(0.00656911 0.00932259 0)
(0.000196989 0.00754967 0)
(-0.00500252 0.00596548 0)
(-0.00908235 0.0044791 0)
(-0.0120444 0.00304721 0)
(-0.0139046 0.00166732 0)
(-0.0147162 0.000375453 0)
(-0.0145313 -0.000789712 0)
(-0.0134357 -0.0017861 0)
(-0.0116161 -0.00253938 0)
(-0.00931198 -0.00296551 0)
(-0.00678403 -0.00302003 0)
(-0.0043564 -0.00270742 0)
(-0.00238223 -0.00206929 0)
(-0.00108092 -0.00119886 0)
(-0.000318797 -0.000293249 0)
(0.0153602 0.0388655 0)
(0.0324264 0.0412196 0)
(0.0282272 0.0364831 0)
(0.0178404 0.0312825 0)
(0.00563418 0.0264405 0)
(-0.00632989 0.0219201 0)
(-0.0170042 0.0175719 0)
(-0.0258079 0.0133087 0)
(-0.0323968 0.00910049 0)
(-0.0365915 0.00498176 0)
(-0.0383936 0.00107107 0)
(-0.0379086 -0.00248266 0)
(-0.0353111 -0.00551994 0)
(-0.0309557 -0.00783487 0)
(-0.0253843 -0.00920114 0)
(-0.019247 -0.00946243 0)
(-0.0132584 -0.00858523 0)
(-0.00810317 -0.00666902 0)
(-0.00420065 -0.00397989 0)
(-0.0013161 -0.00109371 0)
(0.00951475 0.0293947 0)
(0.0213308 0.0457239 0)
(0.0196101 0.0483111 0)
(0.01013 0.045859 0)
(-0.00317347 0.0412665 0)
(-0.0174841 0.0356079 0)
(-0.0309532 0.0293008 0)
(-0.0424153 0.0225709 0)
(-0.0511553 0.0155986 0)
(-0.0567565 0.0085765 0)
(-0.0590887 0.00176388 0)
(-0.0582376 -0.0045268 0)
(-0.0544338 -0.00995639 0)
(-0.0481305 -0.0141612 0)
(-0.0400292 -0.0167719 0)
(-0.0310156 -0.0174926 0)
(-0.0220715 -0.0161902 0)
(-0.0141099 -0.0129535 0)
(-0.00770658 -0.00814981 0)
(-0.00248701 -0.0026043 0)
(0.00479832 0.0245794 0)
(0.01047 0.0474058 0)
(0.00754532 0.0567144 0)
(-0.00219088 0.0584324 0)
(-0.0160917 0.0555751 0)
(-0.0315434 0.0497955 0)
(-0.0464679 0.0420402 0)
(-0.0593889 0.0329465 0)
(-0.0693355 0.0230142 0)
(-0.0756998 0.0126915 0)
(-0.0782266 0.00246235 0)
(-0.0769476 -0.00714268 0)
(-0.0720913 -0.0155629 0)
(-0.064151 -0.0222196 0)
(-0.0539221 -0.0265422 0)
(-0.0424406 -0.0280475 0)
(-0.0308614 -0.026444 0)
(-0.0202578 -0.0217273 0)
(-0.0113744 -0.0142868 0)
(-0.00373034 -0.00503331 0)
(0.00105182 0.0229941 0)
(0.000945664 0.0503052 0)
(-0.00475549 0.0651711 0)
(-0.015895 0.0710391 0)
(-0.0307368 0.070331 0)
(-0.0470825 0.0648283 0)
(-0.0629171 0.0558225 0)
(-0.0766789 0.0443306 0)
(-0.0872929 0.0312049 0)
(-0.0940382 0.0171919 0)
(-0.0965522 0.00304183 0)
(-0.0948083 -0.0104459 0)
(-0.0890187 -0.0224438 0)
(-0.0796751 -0.0321206 0)
(-0.0675944 -0.0386581 0)
(-0.0538815 -0.041318 0)
(-0.0398082 -0.0395602 0)
(-0.0266069 -0.0331937 0)
(-0.0151992 -0.0225462 0)
(-0.00502969 -0.00844356 0)
(-0.00199612 0.0238937 0)
(-0.00723438 0.0558142 0)
(-0.0162382 0.0755506 0)
(-0.0294911 0.0851039 0)
(-0.0457131 0.0863309 0)
(-0.0630492 0.0809984 0)
(-0.0796482 0.0706265 0)
(-0.0939835 0.0565418 0)
(-0.104986 0.0399363 0)
(-0.111913 0.0218735 0)
(-0.114333 0.00337634 0)
(-0.112155 -0.0144856 0)
(-0.105561 -0.0305972 0)
(-0.0950247 -0.0438314 0)
(-0.0813359 -0.0530721 0)
(-0.0655959 -0.0572674 0)
(-0.0491342 -0.0555484 0)
(-0.0333334 -0.0474257 0)
(-0.0192866 -0.0330178 0)
(-0.00641514 -0.0129004 0)
(-0.00456848 0.0268001 0)
(-0.0143466 0.0642534 0)
(-0.0267131 0.0886256 0)
(-0.0423989 0.101351 0)
(-0.0602783 0.104015 0)
(-0.0787097 0.0984341 0)
(-0.0960263 0.0863522 0)
(-0.110798 0.0693696 0)
(-0.122023 0.0489793 0)
(-0.129014 0.0265514 0)
(-0.131329 0.00337444 0)
(-0.128823 -0.019239 0)
(-0.121628 -0.0399093 0)
(-0.110169 -0.0572014 0)
(-0.0951716 -0.0696484 0)
(-0.0776698 -0.0758064 0)
(-0.0589815 -0.0743811 0)
(-0.0405961 -0.064454 0)
(-0.0237663 -0.045758 0)
(-0.00793733 -0.0184584 0)
(-0.00682496 0.0313975 0)
(-0.020685 0.0755369 0)
(-0.0362833 0.104549 0)
(-0.0544341 0.119966 0)
(-0.0740053 0.123454 0)
(-0.0934682 0.117044 0)
(-0.111348 0.102781 0)
(-0.126368 0.0825518 0)
(-0.137637 0.0581097 0)
(-0.144574 0.0310867 0)
(-0.146795 0.003007 0)
(-0.144129 -0.0246127 0)
(-0.136643 -0.0501754 0)
(-0.124664 -0.0719598 0)
(-0.108793 -0.0881156 0)
(-0.0899247 -0.0967194 0)
(-0.0692897 -0.0959263 0)
(-0.0484084 -0.0842293 0)
(-0.0286829 -0.0607772 0)
(-0.00962125 -0.0251347 0)
(-0.00887398 0.03746 0)
(-0.0264805 0.0894118 0)
(-0.0450808 0.123121 0)
(-0.0654852 0.140744 0)
(-0.0865022 0.144391 0)
(-0.106669 0.136507 0)
(-0.124721 0.119547 0)
(-0.139614 0.0957335 0)
(-0.15063 0.0670602 0)
(-0.157334 0.0353504 0)
(-0.159453 0.00230054 0)
(-0.156837 -0.0304237 0)
(-0.149481 -0.0610643 0)
(-0.137556 -0.0876565 0)
(-0.121446 -0.107968 0)
(-0.101811 -0.119532 0)
(-0.079696 -0.119817 0)
(-0.0565529 -0.106532 0)
(-0.0339132 -0.0780118 0)
(-0.0114229 -0.0329372 0)
(-0.010766 0.0448022 0)
(-0.0318367 0.105536 0)
(-0.0531092 0.143921 0)
(-0.0753052 0.16319 0)
(-0.0971983 0.166264 0)
(-0.117416 0.156234 0)
(-0.13494 0.136074 0)
(-0.149054 0.108407 0)
(-0.159311 0.0754589 0)
(-0.165483 0.0391718 0)
(-0.167441 0.00131688 0)
(-0.165099 -0.0363734 0)
(-0.158381 -0.0720495 0)
(-0.147254 -0.103565 0)
(-0.131783 -0.128344 0)
(-0.112268 -0.143359 0)
(-0.0894277 -0.145284 0)
(-0.0645177 -0.130823 0)
(-0.0391471 -0.0972143 0)
(-0.0132278 -0.0418566 0)
(-0.0124726 0.0532539 0)
(-0.0366556 0.123475 0)
(-0.0601158 0.166314 0)
(-0.0833579 0.186501 0)
(-0.105178 0.188161 0)
(-0.124402 0.175292 0)
(-0.140338 0.15151 0)
(-0.152695 0.119866 0)
(-0.161423 0.0828107 0)
(-0.166582 0.0423363 0)
(-0.16823 0.000171014 0)
(-0.166362 -0.0420002 0)
(-0.160844 -0.0823317 0)
(-0.151405 -0.118584 0)
(-0.137711 -0.147919 0)
(-0.11956 -0.166795 0)
(-0.0971643 -0.171035 0)
(-0.071405 -0.156125 0)
(-0.0438698 -0.117841 0)
(-0.0148639 -0.0517869 0)
(-0.0138556 0.0626107 0)
(-0.0405474 0.142603 0)
(-0.065442 0.18933 0)
(-0.0886319 0.209473 0)
(-0.108984 0.208751 0)
(-0.12571 0.192371 0)
(-0.138593 0.164703 0)
(-0.147881 0.12922 0)
(-0.154032 0.0885331 0)
(-0.157494 0.0446172 0)
(-0.15856 -0.000952596 0)
(-0.157311 -0.046677 0)
(-0.15356 -0.0908452 0)
(-0.146802 -0.131254 0)
(-0.136263 -0.16494 0)
(-0.12112 -0.187956 0)
(-0.100869 -0.195288 0)
(-0.0757712 -0.181026 0)
(-0.0472333 -0.139039 0)
(-0.0160504 -0.0624691 0)
(-0.0146116 0.0725417 0)
(-0.0426752 0.161933 0)
(-0.0677661 0.211483 0)
(-0.0893107 0.230359 0)
(-0.106283 0.226244 0)
(-0.118511 0.205803 0)
(-0.126481 0.174246 0)
(-0.131116 0.135413 0)
(-0.133448 0.0919625 0)
(-0.134362 0.0457472 0)
(-0.134437 -0.00188252 0)
(-0.133863 -0.0497272 0)
(-0.132408 -0.0963734 0)
(-0.129358 -0.139847 0)
(-0.123521 -0.177262 0)
(-0.11339 -0.20446 0)
(-0.097551 -0.215689 0)
(-0.0753499 -0.203536 0)
(-0.0477839 -0.159497 0)
(-0.0162704 -0.0734102 0)
(-0.0141426 0.0824528 0)
(-0.0414191 0.179913 0)
(-0.0646225 0.230593 0)
(-0.0822137 0.246755 0)
(-0.0933345 0.238339 0)
(-0.09866 0.213575 0)
(-0.09961 0.178501 0)
(-0.0979011 0.137219 0)
(-0.0951506 0.0923295 0)
(-0.0926342 0.0454304 0)
(-0.0912058 -0.00244723 0)
(-0.0912125 -0.0504865 0)
(-0.0924406 -0.097709 0)
(-0.0940471 -0.142574 0)
(-0.0944896 -0.182532 0)
(-0.0915929 -0.213489 0)
(-0.0829171 -0.22921 0)
(-0.0666397 -0.220851 0)
(-0.0431012 -0.177181 0)
(-0.0146184 -0.0837714 0)
(-0.0112681 0.0913 0)
(-0.0336885 0.194145 0)
(-0.0515623 0.24354 0)
(-0.0619591 0.255423 0)
(-0.0642695 0.242126 0)
(-0.0601617 0.213326 0)
(-0.0520893 0.175699 0)
(-0.0425438 0.133415 0)
(-0.033657 0.0888832 0)
(-0.0270125 0.0433527 0)
(-0.0236494 -0.00255777 0)
(-0.0240597 -0.0484826 0)
(-0.0281284 -0.0939548 0)
(-0.0350188 -0.138 0)
(-0.0430052 -0.178625 0)
(-0.0493984 -0.212154 0)
(-0.0508164 -0.232348 0)
(-0.0442151 -0.229381 0)
(-0.0291984 -0.189255 0)
(-0.00954298 -0.0923061 0)
(-0.0036382 0.0973276 0)
(-0.0136552 0.200968 0)
(-0.020758 0.245926 0)
(-0.0197183 0.252153 0)
(-0.01008 0.234156 0)
(0.00559037 0.202576 0)
(0.0239733 0.164241 0)
(0.0420282 0.123095 0)
(0.0573664 0.0811778 0)
(0.0682969 0.0393483 0)
(0.0737247 -0.00219761 0)
(0.0730712 -0.0435457 0)
(0.066316 -0.0847275 0)
(0.0541477 -0.125344 0)
(0.038214 -0.16408 0)
(0.021335 -0.198034 0)
(0.0073968 -0.22166 0)
(0.000285468 -0.22509 0)
(0.000680634 -0.192155 0)
(0.00183276 -0.0971789 0)
(0.0136489 0.0977233 0)
(0.0296738 0.19507 0)
(0.0413498 0.231976 0)
(0.0586288 0.232095 0)
(0.0826223 0.211024 0)
(0.1105 0.179262 0)
(0.138716 0.143088 0)
(0.164268 0.105873 0)
(0.184947 0.0691679 0)
(0.199255 0.0334447 0)
(0.206225 -0.00144386 0)
(0.205307 -0.0359185 0)
(0.19638 -0.0703699 0)
(0.17989 -0.104849 0)
(0.157107 -0.138704 0)
(0.1304 -0.170045 0)
(0.103332 -0.1947 0)
(0.0796193 -0.204098 0)
(0.0586203 -0.18159 0)
(0.0256233 -0.0957164 0)
(0.0523757 0.0884226 0)
(0.117727 0.169841 0)
(0.157884 0.195557 0)
(0.194623 0.190995 0)
(0.232268 0.170436 0)
(0.269513 0.142563 0)
(0.303872 0.112322 0)
(0.333193 0.0822365 0)
(0.355965 0.0533639 0)
(0.371202 0.0258934 0)
(0.378267 -0.000488654 0)
(0.376772 -0.0263183 0)
(0.366586 -0.0521073 0)
(0.347906 -0.078135 0)
(0.321417 -0.104247 0)
(0.288546 -0.129512 0)
(0.251632 -0.151427 0)
(0.212736 -0.163972 0)
(0.166606 -0.153079 0)
(0.076391 -0.0845884 0)
(0.148171 0.065671 0)
(0.294499 0.120883 0)
(0.366301 0.134062 0)
(0.417411 0.128286 0)
(0.46049 0.11308 0)
(0.498129 0.0937597 0)
(0.530183 0.0733507 0)
(0.556025 0.0534276 0)
(0.575163 0.0346361 0)
(0.587279 0.0170401 0)
(0.592156 0.000365314 0)
(0.589652 -0.0157996 0)
(0.579705 -0.0318432 0)
(0.562333 -0.0480405 0)
(0.537679 -0.0644705 0)
(0.506194 -0.0807945 0)
(0.468775 -0.0958402 0)
(0.425187 -0.106636 0)
(0.363226 -0.105111 0)
(0.194167 -0.0613828 0)
(0.438247 0.0238497 0)
(0.653784 0.0435815 0)
(0.722196 0.0477919 0)
(0.759448 0.0455781 0)
(0.785764 0.0401716 0)
(0.806308 0.0333324 0)
(0.822438 0.0261034 0)
(0.834549 0.0190582 0)
(0.842821 0.0124432 0)
(0.84736 0.00628726 0)
(0.848225 0.000493975 0)
(0.845448 -0.00507935 0)
(0.839032 -0.0105666 0)
(0.828906 -0.0160749 0)
(0.814974 -0.0216604 0)
(0.79723 -0.027233 0)
(0.775842 -0.0324465 0)
(0.750346 -0.036524 0)
(0.711737 -0.0372694 0)
(0.509043 -0.0228348 0)
)
;

boundaryField
{
    movingWall
    {
        type            fixedValue;
        value           uniform (1 0 0);
    }
    fixedWalls
    {
        type            noSlip;
    }
    frontAndBack
    {
        type            empty;
    }
}


// ************************************************************************* //
