/*--------------------------------*- C++ -*----------------------------------*\
  =========                 |
  \\      /  F ield         | OpenFOAM: The Open Source CFD Toolbox
   \\    /   O peration     | Website:  https://openfoam.org
    \\  /    A nd           | Version:  10
     \\/     M anipulation  |
\*---------------------------------------------------------------------------*/
FoamFile
{
    format      ascii;
    class       volScalarField;
    location    "0.2";
    object      p;
}
// * * * * * * * * * * * * * * * * * * * * * * * * * * * * * * * * * * * * * //

dimensions      [0 2 -2 0 0 0 0];

internalField   nonuniform List<scalar> 
400
(
-0.231865
-0.447122
-0.533027
-0.577651
-0.600887
-0.611186
-0.613013
-0.60907
-0.601246
-0.591062
-0.579762
-0.568387
-0.558042
-0.549669
-0.543809
-0.54079
-0.54073
-0.543156
-0.546653
-0.548974
-0.442892
-0.514949
-0.56036
-0.58885
-0.605024
-0.612149
-0.61262
-0.608242
-0.600409
-0.590394
-0.579414
-0.56841
-0.558297
-0.55004
-0.544354
-0.541629
-0.541937
-0.544805
-0.548805
-0.551221
-0.522551
-0.553508
-0.577828
-0.595114
-0.605538
-0.609986
-0.609514
-0.605204
-0.598011
-0.588866
-0.578809
-0.568709
-0.559372
-0.55167
-0.546346
-0.543905
-0.544526
-0.547805
-0.552277
-0.554548
-0.562907
-0.577442
-0.591017
-0.601475
-0.607791
-0.609968
-0.608429
-0.603828
-0.596821
-0.588079
-0.578491
-0.568818
-0.55978
-0.552233
-0.547014
-0.544754
-0.545725
-0.549588
-0.554833
-0.557163
-0.586605
-0.594069
-0.602658
-0.609435
-0.613108
-0.613442
-0.610648
-0.605246
-0.597763
-0.588652
-0.578702
-0.568655
-0.559198
-0.551171
-0.545523
-0.543082
-0.544287
-0.54887
-0.55511
-0.557711
-0.603774
-0.608172
-0.614853
-0.619878
-0.62186
-0.620636
-0.616401
-0.609686
-0.601055
-0.590816
-0.579645
-0.568321
-0.557602
-0.548374
-0.54169
-0.538568
-0.539666
-0.544827
-0.552031
-0.554962
-0.620074
-0.623133
-0.62938
-0.633639
-0.634387
-0.631663
-0.625753
-0.617219
-0.606759
-0.594649
-0.581462
-0.567992
-0.555124
-0.543878
-0.535435
-0.530981
-0.531396
-0.536681
-0.544534
-0.547581
-0.639167
-0.641559
-0.647872
-0.651649
-0.651169
-0.646729
-0.638796
-0.627927
-0.61495
-0.600218
-0.584254
-0.567829
-0.551924
-0.537733
-0.526622
-0.519968
-0.518874
-0.52352
-0.531433
-0.534136
-0.663877
-0.665692
-0.671896
-0.67492
-0.672822
-0.666154
-0.655668
-0.641906
-0.625735
-0.607626
-0.588127
-0.56797
-0.548155
-0.530002
-0.515085
-0.505039
-0.501239
-0.504096
-0.511155
-0.512952
-0.696712
-0.697648
-0.703015
-0.704495
-0.700016
-0.690331
-0.676552
-0.659258
-0.639246
-0.617045
-0.593256
-0.568571
-0.543935
-0.520699
-0.500595
-0.485552
-0.47732
-0.476693
-0.481501
-0.481715
-0.740208
-0.739634
-0.742904
-0.741457
-0.73339
-0.719612
-0.701577
-0.679983
-0.655474
-0.628528
-0.599732
-0.569712
-0.539286
-0.509729
-0.48283
-0.460781
-0.445785
-0.439254
-0.439725
-0.437284
-0.797251
-0.794168
-0.793428
-0.786893
-0.773371
-0.754002
-0.730498
-0.703691
-0.674024
-0.641786
-0.607375
-0.571251
-0.534046
-0.49685
-0.461375
-0.429946
-0.405198
-0.389421
-0.382524
-0.375744
-0.871375
-0.864226
-0.856544
-0.841656
-0.819876
-0.792824
-0.762362
-0.729334
-0.693887
-0.655993
-0.61561
-0.572799
-0.527881
-0.481676
-0.435661
-0.392069
-0.353811
-0.32425
-0.305672
-0.292304
-0.966957
-0.953293
-0.93406
-0.906003
-0.872012
-0.834538
-0.79542
-0.755188
-0.713441
-0.669659
-0.623228
-0.573575
-0.52045
-0.464147
-0.405615
-0.346646
-0.290138
-0.240693
-0.204362
-0.181611
-1.08916
-1.06535
-1.02746
-0.979335
-0.927866
-0.876584
-0.826927
-0.77862
-0.730396
-0.680883
-0.628707
-0.572537
-0.511308
-0.444403
-0.371746
-0.294106
-0.213837
-0.136748
-0.0743817
-0.0386106
-1.24347
-1.20458
-1.13751
-1.0597
-0.984004
-0.914969
-0.852838
-0.795841
-0.741426
-0.687015
-0.630183
-0.568635
-0.500253
-0.423129
-0.33561
-0.236684
-0.127176
-0.0133196
0.0862459
0.140169
-1.43408
-1.3739
-1.26255
-1.14235
-1.03449
-0.943883
-0.868195
-0.802983
-0.743676
-0.686132
-0.626648
-0.561779
-0.488166
-0.402363
-0.300736
-0.179677
-0.0368881
0.123184
0.274499
0.353204
-1.65875
-1.56996
-1.39476
-1.21853
-1.07205
-0.957776
-0.868888
-0.797141
-0.73526
-0.677212
-0.617867
-0.552548
-0.476624
-0.385119
-0.272298
-0.131356
0.0448722
0.257395
0.476224
0.586869
-1.89558
-1.77153
-1.51542
-1.2776
-1.09308
-0.957548
-0.858093
-0.782253
-0.72
-0.663494
-0.60632
-0.542752
-0.467148
-0.37335
-0.253851
-0.09881
0.104247
0.364797
0.65843
0.805717
-2.10357
-1.95089
-1.61459
-1.32733
-1.11506
-0.96399
-0.856038
-0.775916
-0.711858
-0.654851
-0.59764
-0.533851
-0.457301
-0.361159
-0.236799
-0.0727176
0.14636
0.436945
0.793134
0.968474
)
;

boundaryField
{
    movingWall
    {
        type            zeroGradient;
    }
    fixedWalls
    {
        type            zeroGradient;
    }
    frontAndBack
    {
        type            empty;
    }
}


// ************************************************************************* //
