/*--------------------------------*- C++ -*----------------------------------*\
  =========                 |
  \\      /  F ield         | OpenFOAM: The Open Source CFD Toolbox
   \\    /   O peration     | Website:  https://openfoam.org
    \\  /    A nd           | Version:  10
     \\/     M anipulation  |
\*---------------------------------------------------------------------------*/
FoamFile
{
    format      ascii;
    class       surfaceScalarField;
    location    "0.2";
    object      phi;
}
// * * * * * * * * * * * * * * * * * * * * * * * * * * * * * * * * * * * * * //

dimensions      [0 3 -1 0 0 0 0];

internalField   nonuniform List<scalar> 
760
(
1.68357e-06
1.73244e-06
1.70095e-06
1.5654e-06
9.83909e-07
1.24895e-06
4.80118e-07
9.87159e-07
9.62841e-08
7.85049e-07
-2.03112e-07
6.23634e-07
-4.34731e-07
4.85385e-07
-6.05874e-07
3.58998e-07
-7.19782e-07
2.38125e-07
-7.78947e-07
1.20658e-07
-7.86012e-07
8.72625e-09
-7.44348e-07
-9.37919e-08
-6.60513e-07
-1.82282e-07
-5.45035e-07
-2.49898e-07
-4.1082e-07
-2.88368e-07
-2.73449e-07
-2.91496e-07
-1.52095e-07
-2.5757e-07
-6.55428e-08
-1.90571e-07
-2.02059e-08
-1.0255e-07
-1.98343e-08
1.33927e-06
1.85168e-06
1.60273e-06
2.16006e-06
1.10427e-06
1.99407e-06
4.58125e-07
1.73974e-06
-1.84893e-07
1.48132e-06
-7.6246e-07
1.23292e-06
-1.24609e-06
9.90058e-07
-1.62055e-06
7.47386e-07
-1.87671e-06
5.02652e-07
-2.01102e-06
2.57521e-07
-2.02593e-06
1.90251e-08
-1.92827e-06
-2.02362e-07
-1.73083e-06
-3.94428e-07
-1.45538e-06
-5.42505e-07
-1.13223e-06
-6.30432e-07
-7.98369e-07
-6.45091e-07
-4.95272e-07
-5.81127e-07
-2.61028e-07
-4.44582e-07
-1.06843e-07
-2.57137e-07
-6.59092e-08
8.27341e-07
1.32457e-06
1.022e-06
2.17347e-06
6.38558e-07
2.3919e-06
-1.86346e-09
2.33928e-06
-7.2797e-07
2.15197e-06
-1.43319e-06
1.88694e-06
-2.05263e-06
1.56876e-06
-2.54654e-06
1.21159e-06
-2.89035e-06
8.27382e-07
-3.07105e-06
4.28764e-07
-3.08676e-06
3.24775e-08
-2.94467e-06
-3.40773e-07
-2.66094e-06
-6.67894e-07
-2.26364e-06
-9.23787e-07
-1.79337e-06
-1.08262e-06
-1.30128e-06
-1.12262e-06
-8.44688e-07
-1.03257e-06
-4.76218e-07
-8.17834e-07
-2.09489e-07
-5.06314e-07
-1.57435e-07
3.90961e-07
1.09727e-06
4.07534e-07
2.22121e-06
1.16733e-08
2.76798e-06
-6.39984e-07
2.94615e-06
-1.40866e-06
2.87274e-06
-2.18204e-06
2.62063e-06
-2.87884e-06
2.23726e-06
-3.44378e-06
1.75835e-06
-3.84038e-06
1.21442e-06
-4.04708e-06
6.33294e-07
-4.05693e-06
4.52e-08
-3.8752e-06
-5.15755e-07
-3.51841e-06
-1.01291e-06
-3.01757e-06
-1.40813e-06
-2.41998e-06
-1.66333e-06
-1.78724e-06
-1.7455e-06
-1.18944e-06
-1.63439e-06
-6.92726e-07
-1.33074e-06
-3.1436e-07
-8.64552e-07
-2.99619e-07
4.81086e-08
1.05803e-06
-1.35725e-07
2.41534e-06
-6.18604e-07
3.23875e-06
-1.3247e-06
3.6282e-06
-2.14433e-06
3.66683e-06
-2.97204e-06
3.42896e-06
-3.72256e-06
2.97713e-06
-4.33408e-06
2.36579e-06
-4.7639e-06
1.6445e-06
-4.98439e-06
8.5801e-07
-4.98371e-06
5.14139e-08
-4.76454e-06
-7.2643e-07
-4.34241e-06
-1.42356e-06
-3.74876e-06
-1.98673e-06
-3.03441e-06
-2.36345e-06
-2.26884e-06
-2.5067e-06
-1.53407e-06
-2.38306e-06
-9.10369e-07
-1.98322e-06
-4.20009e-07
-1.33313e-06
-4.93238e-07
-2.19471e-07
1.15273e-06
-5.94216e-07
2.77626e-06
-1.19995e-06
3.85103e-06
-1.99552e-06
4.42256e-06
-2.88545e-06
4.5507e-06
-3.77139e-06
4.31021e-06
-4.56949e-06
3.77572e-06
-5.21706e-06
3.01746e-06
-5.67028e-06
2.10247e-06
-5.89875e-06
1.09256e-06
-5.88656e-06
4.77181e-08
-5.63321e-06
-9.69159e-07
-5.15246e-06
-1.89108e-06
-4.47492e-06
-2.64859e-06
-3.65257e-06
-3.17241e-06
-2.76012e-06
-3.39812e-06
-1.89023e-06
-3.27434e-06
-1.13766e-06
-2.77501e-06
-5.30918e-07
-1.91376e-06
-7.39917e-07
-4.35329e-07
1.35046e-06
-9.84206e-07
3.29722e-06
-1.72569e-06
4.61719e-06
-2.63026e-06
5.34369e-06
-3.60421e-06
5.53127e-06
-4.5532e-06
5.26152e-06
-5.39688e-06
4.62304e-06
-6.07483e-06
3.70109e-06
-6.54552e-06
2.57795e-06
-6.77925e-06
1.33104e-06
-6.75782e-06
3.4226e-08
-6.47723e-06
-1.23733e-06
-5.94823e-06
-2.40372e-06
-5.19919e-06
-3.37992e-06
-4.28113e-06
-4.078e-06
-3.271e-06
-4.41181e-06
-2.26963e-06
-4.30568e-06
-1.3855e-06
-3.70844e-06
-6.5391e-07
-2.61122e-06
-1.04281e-06
-6.1954e-07
1.63395e-06
-1.32756e-06
3.96596e-06
-2.2048e-06
5.53355e-06
-3.22266e-06
6.39003e-06
-4.28198e-06
6.6039e-06
-5.29013e-06
6.27343e-06
-6.17201e-06
5.50612e-06
-6.87203e-06
4.40372e-06
-7.35331e-06
3.06187e-06
-7.58976e-06
1.57059e-06
-7.56347e-06
1.50401e-08
-7.26735e-06
-1.52008e-06
-6.70752e-06
-2.94499e-06
-5.90745e-06
-4.16135e-06
-4.91405e-06
-5.06204e-06
-3.80281e-06
-5.5349e-06
-2.67882e-06
-5.47208e-06
-1.66205e-06
-4.78635e-06
-7.94635e-07
-3.43337e-06
-1.40749e-06
-7.87398e-07
1.99396e-06
-1.64325e-06
4.77018e-06
-2.64745e-06
6.58759e-06
-3.76817e-06
7.5468e-06
-4.89861e-06
7.75038e-06
-5.9476e-06
7.32515e-06
-6.84821e-06
6.40355e-06
-7.55334e-06
5.10655e-06
-8.03319e-06
3.54183e-06
-8.2677e-06
1.80791e-06
-8.24189e-06
-3.32476e-09
-7.94682e-06
-1.80177e-06
-7.38249e-06
-3.49169e-06
-6.56374e-06
-4.96466e-06
-5.52827e-06
-6.09546e-06
-4.34446e-06
-6.74295e-06
-3.11579e-06
-6.75876e-06
-1.96969e-06
-6.00583e-06
-9.5522e-07
-4.38717e-06
-1.84203e-06
-9.49243e-07
2.42591e-06
-1.94385e-06
5.69764e-06
-3.05768e-06
7.75918e-06
-4.25488e-06
8.78556e-06
-5.42343e-06
8.93575e-06
-6.47643e-06
8.3791e-06
-7.3595e-06
7.27938e-06
-8.03937e-06
5.7791e-06
-8.49703e-06
3.9967e-06
-8.72083e-06
2.03452e-06
-8.70094e-06
-1.52516e-08
-8.42798e-06
-2.06311e-06
-7.8949e-06
-4.01254e-06
-7.10394e-06
-5.74939e-06
-6.07688e-06
-7.13313e-06
-4.86653e-06
-7.99284e-06
-3.5659e-06
-8.1325e-06
-2.30298e-06
-7.34971e-06
-1.13392e-06
-5.47194e-06
-2.35397e-06
-1.10982e-06
2.9278e-06
-2.23288e-06
6.73323e-06
-3.42836e-06
9.01701e-06
-4.65672e-06
1.006e-05
-5.80765e-06
1.01032e-05
-6.8054e-06
9.3752e-06
-7.61446e-06
8.07739e-06
-8.22193e-06
6.37432e-06
-8.62482e-06
4.39273e-06
-8.82279e-06
2.23348e-06
-8.81297e-06
-1.84981e-08
-8.58668e-06
-2.28212e-06
-8.1294e-06
-4.467e-06
-7.42738e-06
-6.45942e-06
-6.47941e-06
-8.10864e-06
-5.3119e-06
-9.21625e-06
-3.99447e-06
-9.53422e-06
-2.64465e-06
-8.7791e-06
-1.32413e-06
-6.67365e-06
-2.94663e-06
-1.26672e-06
3.49722e-06
-2.50112e-06
7.85287e-06
-3.73506e-06
1.03107e-05
-4.92575e-06
1.12986e-05
-5.97567e-06
1.11691e-05
-6.83235e-06
1.02278e-05
-7.48804e-06
8.71948e-06
-7.95751e-06
6.82806e-06
-8.25952e-06
4.68348e-06
-8.4085e-06
2.3789e-06
-8.40994e-06
-1.53778e-08
-8.25646e-06
-2.43515e-06
-7.92629e-06
-4.80495e-06
-7.3879e-06
-7.02038e-06
-6.61115e-06
-8.92919e-06
-5.58418e-06
-1.03121e-05
-4.33603e-06
-1.08694e-05
-2.95697e-06
-1.02229e-05
-1.50925e-06
-7.95646e-06
-3.61453e-06
-1.40619e-06
4.12587e-06
-2.71841e-06
9.01359e-06
-3.92396e-06
1.15605e-05
-4.9777e-06
1.23966e-05
-5.81068e-06
1.20193e-05
-6.4112e-06
1.08268e-05
-6.81125e-06
9.10891e-06
-7.06008e-06
7.06272e-06
-7.20263e-06
4.81339e-06
-7.27101e-06
2.43861e-06
-7.28033e-06
-1.23413e-08
-7.22492e-06
-2.49926e-06
-7.07655e-06
-4.97077e-06
-6.78652e-06
-7.34317e-06
-6.29269e-06
-9.47569e-06
-5.53429e-06
-1.11411e-05
-4.47956e-06
-1.19955e-05
-3.16765e-06
-1.15605e-05
-1.65297e-06
-9.24561e-06
-4.3353e-06
-1.49184e-06
4.78977e-06
-2.8142e-06
1.01379e-05
-3.88684e-06
1.26435e-05
-4.66493e-06
1.32085e-05
-5.13002e-06
1.2508e-05
-5.333e-06
1.10415e-05
-5.35867e-06
9.1372e-06
-5.2952e-06
6.99437e-06
-5.21385e-06
4.72348e-06
-5.16395e-06
2.37846e-06
-5.17083e-06
-1.82529e-08
-5.23243e-06
-2.45531e-06
-5.31721e-06
-4.91233e-06
-5.36294e-06
-7.33703e-06
-5.27671e-06
-9.61533e-06
-4.94194e-06
-1.15313e-05
-4.24629e-06
-1.27177e-05
-3.14846e-06
-1.26061e-05
-1.68547e-06
-1.04083e-05
-5.05889e-06
-1.43733e-06
5.43115e-06
-2.6348e-06
1.10854e-05
-3.41362e-06
1.33707e-05
-3.73191e-06
1.35369e-05
-3.64971e-06
1.24602e-05
-3.30202e-06
1.07323e-05
-2.83479e-06
8.70129e-06
-2.37375e-06
6.55173e-06
-2.0114e-06
4.36772e-06
-1.80881e-06
2.17316e-06
-1.79874e-06
-3.97327e-08
-1.98469e-06
-2.29017e-06
-2.33803e-06
-4.59108e-06
-2.79195e-06
-6.92738e-06
-3.23139e-06
-9.22432e-06
-3.48642e-06
-1.13005e-05
-3.3518e-06
-1.2801e-05
-2.67755e-06
-1.31068e-05
-1.47875e-06
-1.12398e-05
-5.69321e-06
-1.04922e-06
5.92473e-06
-1.86013e-06
1.16053e-05
-2.10851e-06
1.3455e-05
-1.7446e-06
1.31297e-05
-9.32872e-07
1.16911e-05
9.58969e-08
9.78265e-06
1.13941e-06
7.73857e-06
2.0472e-06
5.70806e-06
2.71844e-06
3.73868e-06
3.09053e-06
1.82262e-06
3.12939e-06
-7.56728e-08
2.82618e-06
-2.00181e-06
2.19997e-06
-3.99738e-06
1.3086e-06
-6.08205e-06
2.69622e-07
-8.22538e-06
-7.14098e-07
-1.03011e-05
-1.35282e-06
-1.20117e-05
-1.37489e-06
-1.2761e-05
-7.95263e-07
-1.14514e-05
-6.08044e-06
9.26677e-08
6.02449e-06
1.5304e-07
1.12783e-05
7.52622e-07
1.2498e-05
2.01699e-06
1.17129e-05
3.67941e-06
1.00635e-05
5.43037e-06
8.15916e-06
7.03846e-06
6.27809e-06
8.35661e-06
4.51953e-06
9.29851e-06
2.89377e-06
9.81549e-06
1.36774e-06
9.88102e-06
-1.11703e-07
9.48376e-06
-1.60468e-06
8.62891e-06
-3.16849e-06
7.35058e-06
-4.84534e-06
5.73956e-06
-6.64251e-06
3.98796e-06
-8.49636e-06
2.4252e-06
-1.02037e-05
1.41744e-06
-1.12821e-05
8.32398e-07
-1.06777e-05
-5.97588e-06
2.91724e-06
5.36157e-06
4.66862e-06
9.57394e-06
6.44667e-06
1.00999e-05
8.69318e-06
9.10388e-06
1.11226e-05
7.56944e-06
1.34249e-05
5.96045e-06
1.54006e-05
4.46556e-06
1.6946e-05
3.13608e-06
1.80141e-05
1.95883e-06
1.85855e-05
8.92031e-07
1.86498e-05
-1.17858e-07
1.81982e-05
-1.12763e-06
1.72226e-05
-2.19149e-06
1.57247e-05
-3.35491e-06
1.37413e-05
-4.64438e-06
1.1398e-05
-6.04465e-06
8.97838e-06
-7.45061e-06
6.84578e-06
-8.56078e-06
4.38022e-06
-8.60025e-06
-5.10093e-06
9.63832e-06
3.31385e-06
1.40912e-05
5.7353e-06
1.70368e-05
5.83669e-06
1.98869e-05
5.12799e-06
2.25533e-05
4.1769e-06
2.4864e-05
3.22854e-06
2.6726e-05
2.3764e-06
2.81119e-05
1.64068e-06
2.90269e-05
1.0074e-06
2.94842e-05
4.48043e-07
2.94917e-05
-7.11552e-08
2.90463e-05
-5.84736e-07
2.81327e-05
-1.12529e-06
2.67256e-05
-1.7216e-06
2.48055e-05
-2.3952e-06
2.24012e-05
-3.14939e-06
1.9666e-05
-3.94637e-06
1.68326e-05
-4.65931e-06
1.20134e-05
-4.92437e-06
-3.07894e-06
2.64167e-05
3.28257e-05
3.54219e-05
3.74103e-05
3.90257e-05
4.02965e-05
4.12438e-05
4.1898e-05
4.22899e-05
4.24426e-05
4.23686e-05
4.20682e-05
4.15283e-05
4.07222e-05
3.96148e-05
3.81803e-05
3.64448e-05
3.45739e-05
2.91334e-05
)
;

boundaryField
{
    movingWall
    {
        type            calculated;
        value           uniform 0;
    }
    fixedWalls
    {
        type            calculated;
        value           uniform 0;
    }
    frontAndBack
    {
        type            empty;
        value           nonuniform List<scalar> 0();
    }
}


// ************************************************************************* //
