/*--------------------------------*- C++ -*----------------------------------*\
  =========                 |
  \\      /  F ield         | OpenFOAM: The Open Source CFD Toolbox
   \\    /   O peration     | Website:  https://openfoam.org
    \\  /    A nd           | Version:  10
     \\/     M anipulation  |
\*---------------------------------------------------------------------------*/
FoamFile
{
    format      ascii;
    class       volVectorField;
    location    "0.2";
    object      U;
}
// * * * * * * * * * * * * * * * * * * * * * * * * * * * * * * * * * * * * * //

dimensions      [0 1 -1 0 0 0 0];

internalField   nonuniform List<vector> 
400
(
(0.0247412 0.025107 0)
(0.0426017 0.0198319 0)
(0.0254362 0.0145695 0)
(0.0139202 0.0108633 0)
(0.00528452 0.00829596 0)
(-0.00143316 0.00641079 0)
(-0.00669132 0.00489909 0)
(-0.0106979 0.00358135 0)
(-0.013537 0.00235708 0)
(-0.0152542 0.00118804 0)
(-0.0159037 8.99981e-05 0)
(-0.0155368 -0.000907414 0)
(-0.0142371 -0.0017687 0)
(-0.0121835 -0.00242465 0)
(-0.00961795 -0.00278643 0)
(-0.00681486 -0.00279412 0)
(-0.00412311 -0.00243941 0)
(-0.0019607 -0.00176912 0)
(-0.000661013 -0.000910967 0)
(-0.000147221 -0.000138693 0)
(0.0178073 0.0441907 0)
(0.0357635 0.0427843 0)
(0.0283456 0.0353884 0)
(0.015825 0.0286231 0)
(0.00249994 0.023106 0)
(-0.00989564 0.0185346 0)
(-0.0206028 0.0145163 0)
(-0.0292407 0.0107786 0)
(-0.0355814 0.00716794 0)
(-0.0394869 0.00363828 0)
(-0.0409539 0.000259052 0)
(-0.0400831 -0.00284426 0)
(-0.0370478 -0.00552259 0)
(-0.0321855 -0.00757125 0)
(-0.0260298 -0.00874831 0)
(-0.0192596 -0.00886571 0)
(-0.0126752 -0.00786338 0)
(-0.0071357 -0.00585373 0)
(-0.00330542 -0.00319104 0)
(-0.000968298 -0.000654679 0)
(0.0106293 0.0298764 0)
(0.0224643 0.043618 0)
(0.0184156 0.0443742 0)
(0.00712669 0.0409664 0)
(-0.00720123 0.0361467 0)
(-0.0219176 0.0307821 0)
(-0.0354102 0.025086 0)
(-0.046695 0.0191169 0)
(-0.0551667 0.0129381 0)
(-0.0604475 0.00666255 0)
(-0.0623944 0.000501952 0)
(-0.061076 -0.0052502 0)
(-0.0567106 -0.0102545 0)
(-0.0497269 -0.0141289 0)
(-0.0408187 -0.016469 0)
(-0.0309162 -0.0169379 0)
(-0.0211349 -0.0153817 0)
(-0.0126526 -0.0119295 0)
(-0.00639613 -0.00709443 0)
(-0.00198342 -0.00198169 0)
(0.00518017 0.0231065 0)
(0.0104583 0.0433209 0)
(0.00584308 0.0513018 0)
(-0.00537615 0.0526049 0)
(-0.0202232 0.0499322 0)
(-0.0361232 0.0446957 0)
(-0.0511582 0.0376645 0)
(-0.0639956 0.0293466 0)
(-0.0737558 0.0201572 0)
(-0.0798593 0.010488 0)
(-0.0820238 0.000797148 0)
(-0.0802536 -0.00838073 0)
(-0.0747544 -0.0164612 0)
(-0.065982 -0.0228226 0)
(-0.0547209 -0.0268357 0)
(-0.0420782 -0.0279667 0)
(-0.0294114 -0.025921 0)
(-0.0181663 -0.0207838 0)
(-0.0095427 -0.0131581 0)
(-0.0030317 -0.00431571 0)
(0.00118986 0.0207844 0)
(0.000734484 0.0455276 0)
(-0.00616349 0.0594174 0)
(-0.0185807 0.0652411 0)
(-0.0344071 0.0649775 0)
(-0.0513661 0.0601295 0)
(-0.0675154 0.0518259 0)
(-0.0813871 0.0409874 0)
(-0.091976 0.0284196 0)
(-0.0985801 0.0148437 0)
(-0.100796 0.00101085 0)
(-0.0985529 -0.0122495 0)
(-0.0920286 -0.0240553 0)
(-0.0816676 -0.0335027 0)
(-0.0682829 -0.0396975 0)
(-0.0530936 -0.0418533 0)
(-0.0376601 -0.0394545 0)
(-0.0237025 -0.0324457 0)
(-0.0127122 -0.021424 0)
(-0.00408815 -0.00766904 0)
(-0.0017835 0.0215367 0)
(-0.00699534 0.0510862 0)
(-0.0167733 0.0701324 0)
(-0.0312248 0.0798871 0)
(-0.048596 0.0816955 0)
(-0.066822 0.0770289 0)
(-0.0840337 0.0672594 0)
(-0.0987459 0.0536443 0)
(-0.109936 0.0373605 0)
(-0.116875 0.0194767 0)
(-0.119075 0.0010457 0)
(-0.116387 -0.0168078 0)
(-0.108941 -0.032887 0)
(-0.0971569 -0.0459665 0)
(-0.0818398 -0.0548404 0)
(-0.0642631 -0.0584145 0)
(-0.0461417 -0.0558679 0)
(-0.0294675 -0.046883 0)
(-0.016039 -0.0319013 0)
(-0.00519771 -0.0120605 0)
(-0.00410965 0.0245726 0)
(-0.0133035 0.0599643 0)
(-0.0260647 0.0839087 0)
(-0.042963 0.0970152 0)
(-0.0622475 0.100332 0)
(-0.0819208 0.0953795 0)
(-0.100207 0.0837693 0)
(-0.115668 0.0670541 0)
(-0.127325 0.0467384 0)
(-0.134496 0.0242258 0)
(-0.136674 0.00086302 0)
(-0.133638 -0.0219586 0)
(-0.125451 -0.0427562 0)
(-0.112478 -0.0599772 0)
(-0.0954893 -0.072056 0)
(-0.0757558 -0.0775102 0)
(-0.0550842 -0.0751058 0)
(-0.0357012 -0.0641174 0)
(-0.0197186 -0.044649 0)
(-0.00643776 -0.0175362 0)
(-0.00605807 0.0294456 0)
(-0.0187236 0.0719244 0)
(-0.0343789 0.100779 0)
(-0.0538129 0.116732 0)
(-0.0750934 0.120919 0)
(-0.096186 0.115081 0)
(-0.115419 0.101152 0)
(-0.131461 0.0809893 0)
(-0.14342 0.0563796 0)
(-0.150712 0.0290157 0)
(-0.152878 0.000506021 0)
(-0.14966 -0.0275347 0)
(-0.141034 -0.0533926 0)
(-0.127267 -0.0752197 0)
(-0.109031 -0.0910642 0)
(-0.0875306 -0.0989623 0)
(-0.0645818 -0.0971216 0)
(-0.0425709 -0.0842202 0)
(-0.0239111 -0.0598 0)
(-0.00787429 -0.024176 0)
(-0.00781962 0.0359125 0)
(-0.0236763 0.0867138 0)
(-0.0420538 0.120563 0)
(-0.063844 0.138869 0)
(-0.086883 0.143237 0)
(-0.109061 0.135856 0)
(-0.128842 0.119092 0)
(-0.145086 0.0951594 0)
(-0.157048 0.0660953 0)
(-0.16428 0.0338079 0)
(-0.166428 9.55842e-05 0)
(-0.163247 -0.0332684 0)
(-0.154626 -0.0644072 0)
(-0.140674 -0.0912342 0)
(-0.121876 -0.111417 0)
(-0.0992552 -0.122434 0)
(-0.0745232 -0.121762 0)
(-0.0501084 -0.107234 0)
(-0.0286792 -0.0775348 0)
(-0.00952966 -0.0321237 0)
(-0.0095209 0.0438459 0)
(-0.0284488 0.104093 0)
(-0.0493051 0.14294 0)
(-0.0730019 0.163003 0)
(-0.0971932 0.166778 0)
(-0.119744 0.15715 0)
(-0.139313 0.13705 0)
(-0.155067 0.109103 0)
(-0.166508 0.0755777 0)
(-0.173374 0.0385084 0)
(-0.17546 -0.000228575 0)
(-0.172578 -0.0388023 0)
(-0.164541 -0.0752606 0)
(-0.151255 -0.107352 0)
(-0.132903 -0.132401 0)
(-0.110173 -0.147284 0)
(-0.0844888 -0.148589 0)
(-0.0581474 -0.133 0)
(-0.0339717 -0.0979518 0)
(-0.011385 -0.0415574 0)
(-0.0112242 0.0531906 0)
(-0.0331687 0.123812 0)
(-0.0561465 0.167427 0)
(-0.0809877 0.188419 0)
(-0.105281 0.190652 0)
(-0.127025 0.178014 0)
(-0.145191 0.154126 0)
(-0.159387 0.122061 0)
(-0.16949 0.0842901 0)
(-0.175503 0.0428723 0)
(-0.177409 -0.000381491 0)
(-0.17511 -0.043722 0)
(-0.168357 -0.0852409 0)
(-0.156819 -0.122623 0)
(-0.140276 -0.152924 0)
(-0.1189 -0.172429 0)
(-0.0935761 -0.176711 0)
(-0.0662026 -0.160989 0)
(-0.0395832 -0.120926 0)
(-0.0133818 -0.0526016 0)
(-0.0129131 0.0639215 0)
(-0.0377556 0.145517 0)
(-0.0622892 0.193254 0)
(-0.0871132 0.213981 0)
(-0.109917 0.213478 0)
(-0.12911 0.196994 0)
(-0.144184 0.16897 0)
(-0.155338 0.132911 0)
(-0.162963 0.0914189 0)
(-0.167418 0.046467 0)
(-0.168922 -0.000358435 0)
(-0.167476 -0.0475628 0)
(-0.162783 -0.0934389 0)
(-0.154269 -0.135753 0)
(-0.141247 -0.171422 0)
(-0.123199 -0.196221 0)
(-0.100169 -0.204657 0)
(-0.0732727 -0.190175 0)
(-0.0450062 -0.14602 0)
(-0.0153638 -0.0652635 0)
(-0.0144469 0.0759671 0)
(-0.0418006 0.168598 0)
(-0.0669359 0.219175 0)
(-0.0900226 0.237963 0)
(-0.109085 0.233287 0)
(-0.123342 0.212119 0)
(-0.133106 0.179809 0)
(-0.139344 0.140211 0)
(-0.143059 0.0959202 0)
(-0.145046 0.048689 0)
(-0.145795 -0.000256677 0)
(-0.145419 -0.0498433 0)
(-0.143578 -0.0987591 0)
(-0.139484 -0.145062 0)
(-0.131977 -0.185746 0)
(-0.119731 -0.216265 0)
(-0.101641 -0.230117 0)
(-0.0775417 -0.218742 0)
(-0.0491643 -0.172238 0)
(-0.0169545 -0.0793176 0)
(-0.0154305 0.0890676 0)
(-0.0442431 0.191946 0)
(-0.068325 0.243247 0)
(-0.0871487 0.257903 0)
(-0.0994484 0.247484 0)
(-0.105752 0.220953 0)
(-0.107568 0.184547 0)
(-0.106779 0.142298 0)
(-0.105029 0.0966154 0)
(-0.103525 0.0488553 0)
(-0.103033 -0.000236976 0)
(-0.1038 -0.0501269 0)
(-0.105497 -0.100072 0)
(-0.107191 -0.148665 0)
(-0.107326 -0.193282 0)
(-0.103742 -0.229378 0)
(-0.0939356 -0.249704 0)
(-0.0759161 -0.243678 0)
(-0.0500224 -0.197586 0)
(-0.0173965 -0.0940942 0)
(-0.0148883 0.102523 0)
(-0.0426048 0.213568 0)
(-0.0627871 0.262495 0)
(-0.0737576 0.270436 0)
(-0.0755189 0.252838 0)
(-0.0704695 0.220709 0)
(-0.0616113 0.180941 0)
(-0.0517801 0.137477 0)
(-0.0431698 0.092324 0)
(-0.0372862 0.0462831 0)
(-0.0350662 -0.000493139 0)
(-0.0368834 -0.0480854 0)
(-0.0425042 -0.0964215 0)
(-0.0510171 -0.144816 0)
(-0.0606608 -0.191331 0)
(-0.0685947 -0.231873 0)
(-0.0708621 -0.259004 0)
(-0.0632098 -0.260567 0)
(-0.0438923 -0.218746 0)
(-0.0152575 -0.108262 0)
(-0.0105468 0.114723 0)
(-0.031422 0.229849 0)
(-0.0429831 0.272334 0)
(-0.0413571 0.271041 0)
(-0.028427 0.245569 0)
(-0.00888786 0.208583 0)
(0.0127237 0.16711 0)
(0.0328526 0.124592 0)
(0.0490354 0.0823849 0)
(0.0597024 0.0406433 0)
(0.0639188 -0.00109617 0)
(0.0612568 -0.0435215 0)
(0.0517903 -0.0872215 0)
(0.0362086 -0.132279 0)
(0.0161355 -0.177641 0)
(-0.00535056 -0.220146 0)
(-0.0232134 -0.253034 0)
(-0.0308995 -0.263704 0)
(-0.0240962 -0.230845 0)
(-0.00771428 -0.119467 0)
(0.00283454 0.122266 0)
(0.00087217 0.234364 0)
(0.00524941 0.265868 0)
(0.0248555 0.254149 0)
(0.0558242 0.222076 0)
(0.0913522 0.182723 0)
(0.125863 0.142432 0)
(0.155676 0.10373 0)
(0.178589 0.0671623 0)
(0.193352 0.0322615 0)
(0.199268 -0.00193074 0)
(0.195973 -0.0365511 0)
(0.183377 -0.0726736 0)
(0.161779 -0.111003 0)
(0.132244 -0.151374 0)
(0.0973381 -0.191898 0)
(0.0621801 -0.227436 0)
(0.0348278 -0.246736 0)
(0.02187 -0.227213 0)
(0.011426 -0.123751 0)
(0.0382338 0.118713 0)
(0.0784557 0.216768 0)
(0.108289 0.234052 0)
(0.149578 0.214368 0)
(0.19815 0.180463 0)
(0.246753 0.143644 0)
(0.290241 0.108691 0)
(0.325783 0.077051 0)
(0.352055 0.0485884 0)
(0.36851 0.022448 0)
(0.374909 -0.00253736 0)
(0.371083 -0.0276362 0)
(0.356846 -0.0540658 0)
(0.332059 -0.0828107 0)
(0.296928 -0.114326 0)
(0.252725 -0.147957 0)
(0.203196 -0.180711 0)
(0.155939 -0.204548 0)
(0.117893 -0.199893 0)
(0.0573162 -0.115284 0)
(0.133723 0.0957497 0)
(0.25181 0.16619 0)
(0.311838 0.169945 0)
(0.369634 0.149788 0)
(0.425842 0.122315 0)
(0.476288 0.0947741 0)
(0.518271 0.0699312 0)
(0.550767 0.0483921 0)
(0.573708 0.0297649 0)
(0.587369 0.0132332 0)
(0.592 -0.00217697 0)
(0.587667 -0.0174689 0)
(0.574187 -0.0335937 0)
(0.551121 -0.0513858 0)
(0.517904 -0.0714488 0)
(0.474315 -0.0938292 0)
(0.421734 -0.117313 0)
(0.364905 -0.137883 0)
(0.308398 -0.144117 0)
(0.172139 -0.0887526 0)
(0.430223 0.0368042 0)
(0.626445 0.0632221 0)
(0.686584 0.0635222 0)
(0.730292 0.0553319 0)
(0.76612 0.0447616 0)
(0.794909 0.0343677 0)
(0.816951 0.0251249 0)
(0.8328 0.0172351 0)
(0.84312 0.010531 0)
(0.848475 0.00468848 0)
(0.84923 -0.000669242 0)
(0.845515 -0.00592055 0)
(0.837212 -0.0114178 0)
(0.823919 -0.0174782 0)
(0.804971 -0.0243592 0)
(0.779621 -0.0321462 0)
(0.747591 -0.0405414 0)
(0.710201 -0.0484891 0)
(0.672753 -0.052858 0)
(0.492585 -0.0344048 0)
)
;

boundaryField
{
    movingWall
    {
        type            fixedValue;
        value           uniform (1 0 0);
    }
    fixedWalls
    {
        type            noSlip;
    }
    frontAndBack
    {
        type            empty;
    }
}


// ************************************************************************* //
