/*--------------------------------*- C++ -*----------------------------------*\
  =========                 |
  \\      /  F ield         | OpenFOAM: The Open Source CFD Toolbox
   \\    /   O peration     | Website:  https://openfoam.org
    \\  /    A nd           | Version:  10
     \\/     M anipulation  |
\*---------------------------------------------------------------------------*/
FoamFile
{
    format      ascii;
    class       volScalarField;
    location    "0.4";
    object      p;
}
// * * * * * * * * * * * * * * * * * * * * * * * * * * * * * * * * * * * * * //

dimensions      [0 2 -2 0 0 0 0];

internalField   nonuniform List<scalar> 
400
(
-0.279367
-0.526029
-0.609922
-0.652589
-0.674549
-0.684011
-0.685258
-0.680882
-0.672695
-0.662138
-0.650459
-0.638801
-0.62827
-0.619744
-0.61381
-0.610863
-0.610983
-0.613646
-0.617486
-0.620161
-0.520952
-0.600521
-0.640362
-0.664636
-0.678488
-0.68446
-0.684358
-0.679648
-0.671594
-0.66139
-0.650185
-0.63899
-0.628805
-0.620546
-0.61486
-0.612134
-0.612462
-0.615482
-0.619955
-0.622911
-0.597688
-0.632489
-0.653306
-0.667729
-0.676711
-0.680652
-0.680114
-0.675873
-0.668784
-0.659749
-0.64975
-0.639689
-0.630471
-0.622921
-0.617656
-0.615121
-0.61557
-0.618875
-0.623945
-0.626794
-0.635494
-0.651768
-0.663546
-0.672522
-0.678204
-0.680327
-0.678977
-0.674584
-0.667742
-0.659157
-0.64967
-0.640055
-0.631161
-0.623818
-0.61867
-0.616217
-0.616855
-0.620699
-0.626767
-0.62976
-0.657541
-0.665957
-0.674069
-0.680316
-0.683794
-0.684225
-0.681656
-0.676435
-0.669025
-0.659995
-0.650123
-0.64011
-0.630756
-0.622919
-0.617329
-0.614609
-0.615341
-0.619873
-0.627177
-0.630531
-0.673603
-0.678862
-0.686084
-0.691153
-0.693105
-0.69194
-0.687854
-0.681256
-0.672589
-0.662335
-0.651247
-0.639997
-0.62937
-0.620275
-0.613572
-0.61007
-0.610591
-0.615716
-0.624267
-0.628081
-0.689125
-0.693196
-0.700749
-0.705369
-0.706105
-0.703321
-0.697432
-0.688971
-0.678432
-0.66626
-0.653186
-0.639879
-0.627137
-0.61594
-0.607315
-0.602318
-0.602075
-0.60744
-0.617057
-0.621247
-0.707588
-0.711193
-0.719411
-0.723733
-0.723208
-0.71859
-0.710537
-0.699718
-0.686703
-0.671945
-0.656133
-0.639931
-0.624168
-0.609915
-0.598395
-0.590967
-0.589139
-0.594097
-0.604383
-0.608633
-0.731673
-0.734906
-0.743577
-0.747296
-0.745118
-0.738204
-0.727488
-0.71375
-0.69761
-0.679573
-0.660261
-0.640296
-0.620535
-0.602153
-0.586583
-0.575542
-0.570988
-0.574534
-0.584772
-0.588553
-0.763842
-0.766401
-0.774865
-0.777234
-0.772636
-0.762675
-0.748607
-0.731297
-0.711327
-0.689264
-0.665665
-0.641049
-0.616255
-0.592539
-0.571555
-0.555403
-0.546567
-0.547209
-0.556195
-0.558754
-0.806713
-0.807921
-0.814999
-0.81474
-0.806517
-0.792405
-0.774052
-0.7524
-0.727876
-0.701025
-0.672332
-0.64219
-0.61132
-0.580974
-0.552976
-0.529818
-0.514572
-0.510125
-0.515926
-0.516104
-0.86338
-0.862074
-0.865828
-0.860913
-0.847286
-0.827503
-0.80364
-0.776716
-0.746938
-0.714654
-0.680149
-0.643659
-0.605713
-0.567416
-0.530628
-0.498144
-0.473637
-0.460905
-0.460499
-0.456462
-0.937743
-0.932052
-0.929337
-0.916603
-0.894988
-0.867519
-0.836631
-0.803326
-0.767573
-0.729382
-0.68862
-0.645173
-0.599262
-0.551707
-0.504212
-0.459679
-0.422229
-0.396664
-0.385433
-0.374474
-1.03489
-1.02186
-1.00759
-0.98217
-0.948827
-0.911059
-0.871382
-0.830549
-0.788139
-0.743674
-0.696489
-0.645909
-0.591574
-0.533746
-0.473674
-0.414005
-0.358942
-0.314168
-0.285126
-0.26343
-1.16151
-1.13654
-1.1025
-1.05703
-1.00672
-0.955411
-0.90504
-0.855705
-0.806427
-0.75588
-0.70261
-0.645195
-0.582465
-0.513802
-0.439547
-0.361467
-0.283087
-0.210422
-0.153202
-0.115429
-1.32603
-1.28218
-1.21507
-1.13872
-1.06453
-0.996101
-0.933589
-0.875373
-0.81945
-0.763544
-0.705239
-0.642126
-0.571944
-0.492804
-0.403548
-0.304135
-0.196057
-0.0842295
0.0162572
0.0775757
-1.53783
-1.46512
-1.34391
-1.22136
-1.11496
-1.02572
-0.950272
-0.884214
-0.823481
-0.764346
-0.703257
-0.636716
-0.561225
-0.47333
-0.369739
-0.247387
-0.103644
0.0606123
0.225407
0.320066
-1.80249
-1.68785
-1.4819
-1.29377
-1.14696
-1.03536
-0.948491
-0.877438
-0.815278
-0.756453
-0.696134
-0.629734
-0.552551
-0.459468
-0.344586
-0.200637
-0.0184453
0.20981
0.464424
0.603954
-2.10521
-1.93557
-1.61202
-1.34471
-1.15493
-1.02285
-0.928169
-0.856097
-0.796351
-0.741431
-0.685313
-0.622526
-0.547445
-0.453562
-0.332477
-0.172457
0.0433729
0.335823
0.698555
0.892018
-2.415
-2.20012
-1.74796
-1.40576
-1.17682
-1.02494
-0.920963
-0.845283
-0.784888
-0.730657
-0.675558
-0.613426
-0.53796
-0.441623
-0.314226
-0.141034
0.100014
0.440495
0.90351
1.13827
)
;

boundaryField
{
    movingWall
    {
        type            zeroGradient;
    }
    fixedWalls
    {
        type            zeroGradient;
    }
    frontAndBack
    {
        type            empty;
    }
}


// ************************************************************************* //
