/*--------------------------------*- C++ -*----------------------------------*\
  =========                 |
  \\      /  F ield         | OpenFOAM: The Open Source CFD Toolbox
   \\    /   O peration     | Website:  https://openfoam.org
    \\  /    A nd           | Version:  10
     \\/     M anipulation  |
\*---------------------------------------------------------------------------*/
FoamFile
{
    format      ascii;
    class       surfaceScalarField;
    location    "0.4";
    object      phi;
}
// * * * * * * * * * * * * * * * * * * * * * * * * * * * * * * * * * * * * * //

dimensions      [0 3 -1 0 0 0 0];

internalField   nonuniform List<scalar> 
760
(
1.8403e-06
1.87718e-06
1.76728e-06
1.58202e-06
9.43001e-07
1.2216e-06
4.29952e-07
9.39867e-07
5.30053e-08
7.34503e-07
-2.37797e-07
5.79096e-07
-4.62713e-07
4.50442e-07
-6.29491e-07
3.33926e-07
-7.40763e-07
2.22088e-07
-7.97782e-07
1.12773e-07
-8.02256e-07
7.65328e-09
-7.57786e-07
-8.96633e-08
-6.71309e-07
-1.73968e-07
-5.52907e-07
-2.38381e-07
-4.15122e-07
-2.75718e-07
-2.7382e-07
-2.80304e-07
-1.48569e-07
-2.49064e-07
-5.92861e-08
-1.83485e-07
-1.50097e-08
-9.458e-08
-1.3647e-08
1.37604e-06
1.90225e-06
1.5502e-06
2.0822e-06
9.77702e-07
1.88932e-06
3.35356e-07
1.63522e-06
-2.84624e-07
1.39015e-06
-8.4038e-07
1.1603e-06
-1.30851e-06
9.36287e-07
-1.67307e-06
7.10194e-07
-1.92307e-06
4.79171e-07
-2.05294e-06
2.4553e-07
-2.06305e-06
1.63771e-08
-1.95976e-06
-1.98039e-07
-1.75685e-06
-3.84888e-07
-1.47633e-06
-5.29327e-07
-1.14731e-06
-6.16331e-07
-8.05408e-07
-6.333e-07
-4.92055e-07
-5.72843e-07
-2.49387e-07
-4.37309e-07
-9.61023e-08
-2.47133e-07
-5.79115e-08
8.22715e-07
1.27234e-06
9.43668e-07
2.03318e-06
5.04355e-07
2.25028e-06
-1.34541e-07
2.22022e-06
-8.40055e-07
2.05989e-06
-1.52479e-06
1.81964e-06
-2.12963e-06
1.52192e-06
-2.61425e-06
1.18031e-06
-2.95206e-06
8.07129e-07
-3.12819e-06
4.16534e-07
-3.13883e-06
2.61879e-08
-2.9905e-06
-3.43288e-07
-2.70061e-06
-6.68322e-07
-2.29786e-06
-9.23252e-07
-1.82089e-06
-1.0827e-06
-1.31769e-06
-1.12509e-06
-8.44854e-07
-1.03708e-06
-4.62461e-07
-8.20391e-07
-1.95842e-07
-5.02267e-07
-1.52108e-07
3.71858e-07
1.04259e-06
3.35375e-07
2.10134e-06
-1.00819e-07
2.65329e-06
-7.5721e-07
2.85672e-06
-1.51566e-06
2.80903e-06
-2.27737e-06
2.57739e-06
-2.96602e-06
2.20864e-06
-3.52588e-06
1.73892e-06
-3.91872e-06
1.19929e-06
-4.12183e-06
6.19624e-07
-4.12687e-06
3.17066e-08
-3.93842e-06
-5.30506e-07
-3.57448e-06
-1.03028e-06
-3.06713e-06
-1.42851e-06
-2.46114e-06
-1.68648e-06
-1.81324e-06
-1.77056e-06
-1.19235e-06
-1.65847e-06
-6.75955e-07
-1.34808e-06
-2.97325e-07
-8.69661e-07
-2.97819e-07
3.32443e-08
1.01596e-06
-1.85178e-07
2.332e-06
-7.00586e-07
3.16442e-06
-1.4211e-06
3.57548e-06
-2.24375e-06
3.63316e-06
-3.07094e-06
3.40788e-06
-3.82149e-06
2.96279e-06
-4.43334e-06
2.35357e-06
-4.86215e-06
1.63006e-06
-5.07995e-06
8.38866e-07
-5.07476e-06
2.70461e-08
-4.84866e-06
-7.56645e-07
-4.41821e-06
-1.46076e-06
-3.81598e-06
-2.03107e-06
-3.08998e-06
-2.41304e-06
-2.30377e-06
-2.55752e-06
-1.53816e-06
-2.4288e-06
-8.88922e-07
-2.01579e-06
-3.98564e-07
-1.34629e-06
-4.93204e-07
-2.21103e-07
1.1234e-06
-6.15941e-07
2.72454e-06
-1.25298e-06
3.81161e-06
-2.07466e-06
4.40088e-06
-2.98109e-06
4.54159e-06
-3.87726e-06
4.3063e-06
-4.68301e-06
3.7711e-06
-5.33606e-06
3.00857e-06
-5.79088e-06
2.08593e-06
-6.01735e-06
1.06599e-06
-6.00095e-06
1.04558e-08
-5.74107e-06
-1.01741e-06
-5.2514e-06
-1.95103e-06
-4.56258e-06
-2.71988e-06
-3.72338e-06
-3.25155e-06
-2.80248e-06
-3.47766e-06
-1.89247e-06
-3.34379e-06
-1.10826e-06
-2.82314e-06
-5.0293e-07
-1.93345e-06
-7.39666e-07
-4.2168e-07
1.33072e-06
-9.80035e-07
3.2689e-06
-1.75557e-06
4.60525e-06
-2.69843e-06
5.34799e-06
-3.70148e-06
5.54397e-06
-4.67017e-06
5.27404e-06
-5.52765e-06
4.62869e-06
-6.21527e-06
3.69651e-06
-6.69016e-06
2.56048e-06
-6.923e-06
1.29817e-06
-6.89808e-06
-1.57804e-08
-6.61192e-06
-1.30531e-06
-6.07396e-06
-2.48966e-06
-5.31055e-06
-3.48188e-06
-4.36833e-06
-4.18998e-06
-3.31887e-06
-4.52267e-06
-2.26555e-06
-4.40055e-06
-1.3429e-06
-3.77256e-06
-6.15821e-07
-2.63652e-06
-1.04142e-06
-5.91766e-07
1.62118e-06
-1.30172e-06
3.95585e-06
-2.21784e-06
5.54599e-06
-3.28594e-06
6.42035e-06
-4.38591e-06
6.64087e-06
-5.42212e-06
6.30676e-06
-6.32276e-06
5.5276e-06
-7.03568e-06
4.40885e-06
-7.52393e-06
3.04767e-06
-7.76178e-06
1.53423e-06
-7.73379e-06
-4.6476e-08
-7.43338e-06
-1.60856e-06
-6.86426e-06
-3.05962e-06
-6.04577e-06
-4.29749e-06
-5.01884e-06
-5.20988e-06
-3.8543e-06
-5.67897e-06
-2.66368e-06
-5.59327e-06
-1.60065e-06
-4.86665e-06
-7.42748e-07
-3.46391e-06
-1.40501e-06
-7.4748e-07
1.98781e-06
-1.59985e-06
4.77794e-06
-2.64908e-06
6.62651e-06
-3.83188e-06
7.60811e-06
-5.01366e-06
7.81832e-06
-6.0985e-06
7.38676e-06
-7.02253e-06
6.44883e-06
-7.74344e-06
5.12886e-06
-8.23322e-06
3.5366e-06
-8.47262e-06
1.77155e-06
-8.4482e-06
-7.45429e-08
-8.15025e-06
-1.91011e-06
-7.57515e-06
-3.63543e-06
-6.73199e-06
-5.1363e-06
-5.65137e-06
-6.28089e-06
-4.39789e-06
-6.92207e-06
-3.08601e-06
-6.90828e-06
-1.88585e-06
-6.10467e-06
-8.87718e-07
-4.42524e-06
-1.83972e-06
-8.99658e-07
2.42917e-06
-1.88698e-06
5.72794e-06
-3.05304e-06
7.8307e-06
-4.32454e-06
8.88575e-06
-5.55461e-06
9.04353e-06
-6.65081e-06
8.47769e-06
-7.56225e-06
7.35678e-06
-8.26123e-06
5.82639e-06
-8.73197e-06
4.00722e-06
-8.96452e-06
2.00338e-06
-8.9497e-06
-9.20036e-08
-8.67528e-06
-2.18721e-06
-8.12874e-06
-4.18115e-06
-7.30534e-06
-5.9531e-06
-6.21948e-06
-7.35494e-06
-4.92176e-06
-8.20906e-06
-3.52097e-06
-8.31604e-06
-2.19723e-06
-7.47578e-06
-1.05224e-06
-5.52679e-06
-2.35647e-06
-1.05509e-06
2.94715e-06
-2.16897e-06
6.7964e-06
-3.42431e-06
9.1307e-06
-4.73942e-06
1.02082e-05
-5.96162e-06
1.02603e-05
-7.00907e-06
9.51978e-06
-7.85127e-06
8.19503e-06
-8.48167e-06
6.45404e-06
-8.90103e-06
4.42634e-06
-9.11131e-06
2.21501e-06
-9.1098e-06
-9.28948e-08
-8.88321e-06
-2.41311e-06
-8.40958e-06
-4.65089e-06
-7.66681e-06
-6.68668e-06
-6.64628e-06
-8.36235e-06
-5.37426e-06
-9.47198e-06
-3.94104e-06
-9.7625e-06
-2.52483e-06
-8.9504e-06
-1.2344e-06
-6.76548e-06
-2.96511e-06
-1.21615e-06
3.54518e-06
-2.44291e-06
7.96762e-06
-3.74304e-06
1.04813e-05
-5.0311e-06
1.15045e-05
-6.16071e-06
1.1383e-05
-7.07216e-06
1.0425e-05
-7.76461e-06
8.88294e-06
-8.26025e-06
6.94521e-06
-8.58178e-06
4.74585e-06
-8.74594e-06
2.38058e-06
-8.75804e-06
-7.76227e-08
-8.6054e-06
-2.56122e-06
-8.25742e-06
-4.99156e-06
-7.67272e-06
-7.2604e-06
-6.81328e-06
-9.20953e-06
-5.66892e-06
-1.06119e-05
-4.29345e-06
-1.11599e-05
-2.84352e-06
-1.04698e-05
-1.42545e-06
-8.1212e-06
-3.67102e-06
-1.37721e-06
4.22516e-06
-2.69009e-06
9.21218e-06
-3.96448e-06
1.18098e-05
-5.11975e-06
1.26691e-05
-6.0364e-06
1.22905e-05
-6.69412e-06
1.10741e-05
-7.13246e-06
9.31501e-06
-7.40874e-06
7.21529e-06
-7.57214e-06
4.90553e-06
-7.65709e-06
2.46593e-06
-7.67851e-06
-5.2234e-08
-7.62567e-06
-2.60687e-06
-7.46122e-06
-5.1457e-06
-7.12524e-06
-7.58401e-06
-6.54697e-06
-9.77766e-06
-5.6684e-06
-1.14925e-05
-4.48441e-06
-1.23745e-05
-3.0999e-06
-1.193e-05
-1.60184e-06
-9.54264e-06
-4.46895e-06
-1.51449e-06
4.98046e-06
-2.85867e-06
1.04727e-05
-3.99667e-06
1.30003e-05
-4.86692e-06
1.35496e-05
-5.4086e-06
1.28218e-05
-5.66447e-06
1.13184e-05
-5.72539e-06
9.36725e-06
-5.68696e-06
7.16908e-06
-5.62495e-06
4.8389e-06
-5.59128e-06
2.43255e-06
-5.61136e-06
-2.72917e-08
-5.67903e-06
-2.53023e-06
-5.7541e-06
-5.05842e-06
-5.76272e-06
-7.56246e-06
-5.60337e-06
-9.92939e-06
-5.1635e-06
-1.19401e-05
-4.35543e-06
-1.32161e-05
-3.19053e-06
-1.31609e-05
-1.71122e-06
-1.09242e-05
-5.3306e-06
-1.56186e-06
5.77878e-06
-2.825e-06
1.1636e-05
-3.65547e-06
1.38684e-05
-4.03117e-06
1.39355e-05
-3.99542e-06
1.2779e-05
-3.68133e-06
1.0992e-05
-3.23739e-06
8.91164e-06
-2.79324e-06
6.71496e-06
-2.44547e-06
4.48444e-06
-2.25806e-06
2.24334e-06
-2.26393e-06
-1.79527e-08
-2.46317e-06
-2.32273e-06
-2.81949e-06
-4.69044e-06
-3.25583e-06
-7.1145e-06
-3.65149e-06
-9.52918e-06
-3.84357e-06
-1.17584e-05
-3.6444e-06
-1.34379e-05
-2.92219e-06
-1.39064e-05
-1.64541e-06
-1.20738e-05
-6.18077e-06
-1.35428e-06
6.52173e-06
-2.31134e-06
1.24791e-05
-2.57869e-06
1.41299e-05
-2.19298e-06
1.35587e-05
-1.3573e-06
1.19531e-05
-3.16738e-07
9.95171e-06
7.27788e-07
7.85899e-06
1.63091e-06
5.80169e-06
2.29364e-06
3.81412e-06
2.65198e-06
1.88154e-06
2.67119e-06
-3.64707e-08
2.34443e-06
-1.99185e-06
1.69614e-06
-4.03607e-06
7.90029e-07
-6.20385e-06
-2.57859e-07
-8.48505e-06
-1.2578e-06
-1.07723e-05
-1.92484e-06
-1.27671e-05
-1.93961e-06
-1.38205e-05
-1.18384e-06
-1.26726e-05
-6.85615e-06
-4.94694e-07
6.95988e-06
-7.12027e-07
1.25756e-05
-6.91567e-08
1.33783e-05
1.35986e-06
1.21454e-05
3.16761e-06
1.02122e-05
5.00802e-06
8.17191e-06
6.65968e-06
6.24526e-06
7.99279e-06
4.48789e-06
8.9331e-06
2.88252e-06
9.43686e-06
1.38074e-06
9.47857e-06
-7.93537e-08
9.04703e-06
-1.56558e-06
8.14771e-06
-3.14684e-06
6.81155e-06
-4.88558e-06
5.11523e-06
-6.81982e-06
3.22677e-06
-8.92001e-06
1.48565e-06
-1.09968e-05
4.10187e-07
-1.25207e-05
1.34568e-07
-1.22515e-05
-7.05412e-06
1.97329e-06
6.63195e-06
3.26302e-06
1.12889e-05
5.17291e-06
1.11922e-05
7.79144e-06
9.57677e-06
1.05363e-05
7.65647e-06
1.30313e-05
5.8659e-06
1.51032e-05
4.31735e-06
1.66862e-05
3.00167e-06
1.77605e-05
1.86724e-06
1.83204e-05
8.50508e-07
1.83602e-05
-1.13887e-07
1.78694e-05
-1.09107e-06
1.68324e-05
-2.14677e-06
1.52349e-05
-3.34744e-06
1.30818e-05
-4.75308e-06
1.04553e-05
-6.39003e-06
7.65162e-06
-8.18233e-06
5.32346e-06
-9.80367e-06
3.31038e-06
-1.03291e-05
-6.36963e-06
8.44205e-06
4.37393e-06
1.22648e-05
7.16645e-06
1.54263e-05
6.75184e-06
1.88458e-05
5.53846e-06
2.19712e-05
4.26732e-06
2.45536e-05
3.16112e-06
2.65481e-05
2.25586e-06
2.79862e-05
1.52392e-06
2.89133e-05
9.20185e-07
2.93637e-05
3.98159e-07
2.93527e-05
-8.56909e-08
2.88743e-05
-5.7225e-07
2.78993e-05
-1.10211e-06
2.63758e-05
-1.71813e-06
2.42365e-05
-2.46423e-06
2.14412e-05
-3.37351e-06
1.81215e-05
-4.43458e-06
1.4919e-05
-5.51602e-06
1.06319e-05
-6.18174e-06
-4.04806e-06
2.55564e-05
3.14246e-05
3.42049e-05
3.66937e-05
3.86753e-05
4.01466e-05
4.11854e-05
4.18738e-05
4.22743e-05
4.24253e-05
4.23438e-05
4.20265e-05
4.14491e-05
4.05631e-05
3.92948e-05
3.75538e-05
3.52965e-05
3.30368e-05
2.79861e-05
)
;

boundaryField
{
    movingWall
    {
        type            calculated;
        value           uniform 0;
    }
    fixedWalls
    {
        type            calculated;
        value           uniform 0;
    }
    frontAndBack
    {
        type            empty;
        value           nonuniform List<scalar> 0();
    }
}


// ************************************************************************* //
