/*--------------------------------*- C++ -*----------------------------------*\
  =========                 |
  \\      /  F ield         | OpenFOAM: The Open Source CFD Toolbox
   \\    /   O peration     | Website:  https://openfoam.org
    \\  /    A nd           | Version:  10
     \\/     M anipulation  |
\*---------------------------------------------------------------------------*/
FoamFile
{
    format      ascii;
    class       volVectorField;
    location    "0.4";
    object      U;
}
// * * * * * * * * * * * * * * * * * * * * * * * * * * * * * * * * * * * * * //

dimensions      [0 1 -1 0 0 0 0];

internalField   nonuniform List<vector> 
400
(
(0.027769 0.0279891 0)
(0.0458431 0.0207658 0)
(0.0248483 0.0147077 0)
(0.0128717 0.0105656 0)
(0.00432638 0.00783992 0)
(-0.00220617 0.00595997 0)
(-0.0073057 0.00452637 0)
(-0.0112028 0.00330557 0)
(-0.0139768 0.00217777 0)
(-0.0156537 0.00110017 0)
(-0.0162576 7.87102e-05 0)
(-0.0158326 -0.000860717 0)
(-0.0144788 -0.00167314 0)
(-0.0123735 -0.00228905 0)
(-0.00974273 -0.00263511 0)
(-0.00686215 -0.0026591 0)
(-0.00409066 -0.00233638 0)
(-0.00185208 -0.00168442 0)
(-0.000519359 -0.000818342 0)
(-8.10289e-05 -6.37614e-05 0)
(0.0189844 0.047098 0)
(0.0360573 0.042515 0)
(0.0259508 0.0341563 0)
(0.0131573 0.0270291 0)
(0.000256929 0.0215402 0)
(-0.0116419 0.0172039 0)
(-0.0219733 0.0134913 0)
(-0.0303669 0.0100515 0)
(-0.0365558 0.00670574 0)
(-0.0403671 0.00341077 0)
(-0.0417506 0.000227421 0)
(-0.0407714 -0.00272581 0)
(-0.0376189 -0.00528559 0)
(-0.032655 -0.0072462 0)
(-0.0263981 -0.00839362 0)
(-0.0194944 -0.00855306 0)
(-0.0127219 -0.00762617 0)
(-0.00696029 -0.005655 0)
(-0.0030152 -0.00296486 0)
(-0.000828895 -0.000482119 0)
(0.011043 0.0289919 0)
(0.0218656 0.0407732 0)
(0.0158811 0.0414166 0)
(0.0042931 0.0383797 0)
(-0.00967476 0.0340658 0)
(-0.0239274 0.0292081 0)
(-0.037064 0.0239602 0)
(-0.0481211 0.0183563 0)
(-0.0564487 0.0124611 0)
(-0.0616336 0.00641043 0)
(-0.063494 0.000427664 0)
(-0.0620593 -0.00519573 0)
(-0.0575605 -0.0101099 0)
(-0.0504639 -0.0139269 0)
(-0.0414504 -0.0162596 0)
(-0.0313854 -0.016779 0)
(-0.0213222 -0.0152876 0)
(-0.0124719 -0.0118374 0)
(-0.00602648 -0.00692044 0)
(-0.0018072 -0.00183434 0)
(0.00522063 0.0219019 0)
(0.00965369 0.0405538 0)
(0.00376131 0.0485945 0)
(-0.00779407 0.050429 0)
(-0.0224943 0.0483297 0)
(-0.0381321 0.0435775 0)
(-0.0529626 0.0369166 0)
(-0.0656781 0.028856 0)
(-0.075357 0.019824 0)
(-0.0813919 0.0102509 0)
(-0.0834812 0.000619851 0)
(-0.0815935 -0.00853579 0)
(-0.0759433 -0.0166229 0)
(-0.0670359 -0.0230032 0)
(-0.0556493 -0.0270486 0)
(-0.0427962 -0.0282245 0)
(-0.0297334 -0.0261955 0)
(-0.0179605 -0.0209783 0)
(-0.00907771 -0.0131702 0)
(-0.00281531 -0.00424999 0)
(0.00115818 0.0198017 0)
(0.000171589 0.0435 0)
(-0.00757871 0.0575372 0)
(-0.0204448 0.0638396 0)
(-0.0363994 0.0640316 0)
(-0.0533508 0.0595179 0)
(-0.0694867 0.0514291 0)
(-0.0833729 0.0407009 0)
(-0.0939609 0.0281477 0)
(-0.100525 0.014534 0)
(-0.102673 0.000648414 0)
(-0.100317 -0.0126845 0)
(-0.0936292 -0.0245882 0)
(-0.0830993 -0.0341371 0)
(-0.0695398 -0.0404105 0)
(-0.0540594 -0.0425977 0)
(-0.0380914 -0.0401434 0)
(-0.023435 -0.0329449 0)
(-0.0121218 -0.0216162 0)
(-0.00382071 -0.00766278 0)
(-0.00172624 0.0208368 0)
(-0.00711789 0.0497802 0)
(-0.0175197 0.0690397 0)
(-0.0325996 0.0791796 0)
(-0.0503868 0.0812949 0)
(-0.0688567 0.0767973 0)
(-0.0862337 0.0670824 0)
(-0.101087 0.0534418 0)
(-0.112356 0.0370548 0)
(-0.119279 0.0190206 0)
(-0.121415 0.000433429 0)
(-0.118623 -0.0175813 0)
(-0.111019 -0.0338423 0)
(-0.0990365 -0.0471055 0)
(-0.0834668 -0.0561112 0)
(-0.0654684 -0.0597031 0)
(-0.0466307 -0.0570085 0)
(-0.0290682 -0.0476866 0)
(-0.0152622 -0.0322355 0)
(-0.00485499 -0.0120654 0)
(-0.00390784 0.0240993 0)
(-0.0129594 0.0592013 0)
(-0.026242 0.0834247 0)
(-0.0439809 0.0968558 0)
(-0.0639562 0.100369 0)
(-0.0841028 0.0954547 0)
(-0.102704 0.0837617 0)
(-0.118402 0.0669008 0)
(-0.130208 0.0463825 0)
(-0.137398 0.023619 0)
(-0.139522 -1.51978e-05 0)
(-0.136401 -0.0231149 0)
(-0.128075 -0.0441987 0)
(-0.114883 -0.0616899 0)
(-0.0975389 -0.0739507 0)
(-0.0771945 -0.0794035 0)
(-0.0555601 -0.0767432 0)
(-0.0350617 -0.0652391 0)
(-0.0186542 -0.0451025 0)
(-0.00597862 -0.0175213 0)
(-0.00570961 0.0291294 0)
(-0.017961 0.0715546 0)
(-0.0341076 0.100785 0)
(-0.054606 0.117064 0)
(-0.0768315 0.12139 0)
(-0.0986047 0.115507 0)
(-0.11828 0.101386 0)
(-0.13463 0.0809595 0)
(-0.146797 0.0560367 0)
(-0.15416 0.0283079 0)
(-0.156311 -0.000616017 0)
(-0.15304 -0.0290973 0)
(-0.144295 -0.0553875 0)
(-0.130276 -0.0775853 0)
(-0.111555 -0.0936486 0)
(-0.0891989 -0.101503 0)
(-0.0649731 -0.0992788 0)
(-0.0415741 -0.0856633 0)
(-0.0224518 -0.0603583 0)
(-0.00725808 -0.0241355 0)
(-0.00734192 0.0357179 0)
(-0.0225573 0.0866792 0)
(-0.0414368 0.121054 0)
(-0.0645262 0.13975 0)
(-0.0887488 0.144245 0)
(-0.111797 0.136764 0)
(-0.132143 0.119718 0)
(-0.148758 0.0953946 0)
(-0.160979 0.0658701 0)
(-0.168349 0.0330615 0)
(-0.170555 -0.00124302 0)
(-0.167372 -0.035245 0)
(-0.158638 -0.0669972 0)
(-0.144368 -0.0943144 0)
(-0.124911 -0.114746 0)
(-0.101143 -0.125656 0)
(-0.0747721 -0.124452 0)
(-0.0486682 -0.109003 0)
(-0.0267658 -0.0781981 0)
(-0.00874295 -0.032065 0)
(-0.00894317 0.0437945 0)
(-0.0270431 0.104438 0)
(-0.048436 0.144006 0)
(-0.0736857 0.164574 0)
(-0.0992957 0.168487 0)
(-0.122889 0.158707 0)
(-0.143144 0.138235 0)
(-0.159346 0.10976 0)
(-0.171103 0.075594 0)
(-0.178176 0.0378007 0)
(-0.180405 -0.00173869 0)
(-0.177583 -0.0411594 0)
(-0.169428 -0.0784199 0)
(-0.155721 -0.111137 0)
(-0.136492 -0.136489 0)
(-0.112287 -0.151227 0)
(-0.0845833 -0.151879 0)
(-0.0562556 -0.135184 0)
(-0.0316337 -0.0988116 0)
(-0.0104561 -0.041524 0)
(-0.0106035 0.0533721 0)
(-0.0316002 0.124679 0)
(-0.0551587 0.169222 0)
(-0.0818137 0.190856 0)
(-0.107763 0.193254 0)
(-0.130702 0.180401 0)
(-0.149661 0.156036 0)
(-0.16439 0.123296 0)
(-0.174877 0.0846947 0)
(-0.181164 0.0423347 0)
(-0.183288 -0.00194145 0)
(-0.181104 -0.0463288 0)
(-0.174225 -0.088826 0)
(-0.162158 -0.126987 0)
(-0.144514 -0.157708 0)
(-0.121337 -0.177135 0)
(-0.0936332 -0.180763 0)
(-0.0640083 -0.163847 0)
(-0.036985 -0.12226 0)
(-0.0123908 -0.0527348 0)
(-0.0123648 0.0645138 0)
(-0.0362814 0.147177 0)
(-0.061435 0.196006 0)
(-0.0882867 0.217472 0)
(-0.112957 0.217158 0)
(-0.133471 0.200391 0)
(-0.149415 0.171765 0)
(-0.16117 0.134866 0)
(-0.169241 0.0923588 0)
(-0.174031 0.0462659 0)
(-0.175807 -0.00177434 0)
(-0.174515 -0.0501955 0)
(-0.169701 -0.0972094 0)
(-0.160596 -0.140481 0)
(-0.146313 -0.176786 0)
(-0.126218 -0.201744 0)
(-0.100539 -0.209738 0)
(-0.0711994 -0.194169 0)
(-0.0425416 -0.148359 0)
(-0.0144763 -0.0658694 0)
(-0.0141814 0.0772933 0)
(-0.0409068 0.171528 0)
(-0.0666968 0.223244 0)
(-0.0918823 0.242709 0)
(-0.112908 0.238161 0)
(-0.128548 0.21661 0)
(-0.139217 0.183553 0)
(-0.146082 0.142942 0)
(-0.150268 0.0974753 0)
(-0.152618 0.0489573 0)
(-0.153666 -0.00133057 0)
(-0.153474 -0.0522535 0)
(-0.151553 -0.102453 0)
(-0.146896 -0.149935 0)
(-0.138114 -0.191595 0)
(-0.123765 -0.222732 0)
(-0.102971 -0.236658 0)
(-0.0764056 -0.224623 0)
(-0.0475906 -0.176489 0)
(-0.0164831 -0.0809713 0)
(-0.0158035 0.0917131 0)
(-0.0447763 0.196959 0)
(-0.0695704 0.249148 0)
(-0.0902964 0.264054 0)
(-0.10438 0.253458 0)
(-0.111964 0.226352 0)
(-0.114615 0.189048 0)
(-0.1144 0.145669 0)
(-0.113078 0.0987459 0)
(-0.11192 0.0496799 0)
(-0.111731 -0.000758791 0)
(-0.112723 -0.0520212 0)
(-0.114438 -0.103375 0)
(-0.115726 -0.153425 0)
(-0.114783 -0.199511 0)
(-0.109352 -0.23697 0)
(-0.097188 -0.258324 0)
(-0.0770293 -0.252579 0)
(-0.0505919 -0.205217 0)
(-0.017857 -0.0977865 0)
(-0.0164824 0.107505 0)
(-0.0459919 0.221948 0)
(-0.0670082 0.270862 0)
(-0.0792107 0.27793 0)
(-0.0820363 0.259416 0)
(-0.0777804 0.226385 0)
(-0.0694728 0.185642 0)
(-0.0600228 0.141094 0)
(-0.0517068 0.0948103 0)
(-0.046112 0.0476219 0)
(-0.0442104 -0.000332876 0)
(-0.0463467 -0.049188 0)
(-0.0521803 -0.0989618 0)
(-0.0605994 -0.149073 0)
(-0.0696338 -0.197665 0)
(-0.0764256 -0.240636 0)
(-0.0773174 -0.270321 0)
(-0.0684588 -0.273859 0)
(-0.048429 -0.231751 0)
(-0.0173874 -0.115437 0)
(-0.0142476 0.123646 0)
(-0.0399238 0.243491 0)
(-0.0525298 0.283873 0)
(-0.0506178 0.27949 0)
(-0.0371013 0.251745 0)
(-0.0171907 0.213295 0)
(0.00452124 0.170823 0)
(0.0245903 0.127504 0)
(0.0406462 0.0845673 0)
(0.0510992 0.0421119 0)
(0.0549801 -0.000385234 0)
(0.0518677 -0.0437211 0)
(0.0419095 -0.0886559 0)
(0.0259362 -0.135507 0)
(0.005665 -0.183502 0)
(-0.0159794 -0.229699 0)
(-0.0343327 -0.267196 0)
(-0.0426608 -0.282397 0)
(-0.0349236 -0.2512 0)
(-0.0124301 -0.131793 0)
(-0.00404876 0.137223 0)
(-0.015739 0.255673 0)
(-0.0127421 0.281322 0)
(0.00997583 0.26286 0)
(0.0444185 0.226381 0)
(0.0822857 0.184774 0)
(0.118035 0.143536 0)
(0.148352 0.104563 0)
(0.17136 0.0679974 0)
(0.185964 0.0331497 0)
(0.19151 -0.0010736 0)
(0.187633 -0.035953 0)
(0.174249 -0.0727868 0)
(0.15166 -0.112647 0)
(0.120802 -0.1559 0)
(0.0838067 -0.201194 0)
(0.0452643 -0.243486 0)
(0.0141616 -0.270423 0)
(0.00224582 -0.255703 0)
(0.0031369 -0.142453 0)
(0.0275772 0.141172 0)
(0.0513542 0.24735 0)
(0.0791666 0.253812 0)
(0.12775 0.222955 0)
(0.183908 0.182108 0)
(0.237543 0.142103 0)
(0.283709 0.106274 0)
(0.320417 0.0749525 0)
(0.347029 0.0473036 0)
(0.36339 0.0220799 0)
(0.369426 -0.00210055 0)
(0.364983 -0.0266702 0)
(0.349791 -0.0530867 0)
(0.323506 -0.0827756 0)
(0.285889 -0.116893 0)
(0.237383 -0.155607 0)
(0.18083 -0.196385 0)
(0.125234 -0.230403 0)
(0.0877041 -0.234356 0)
(0.0447109 -0.139712 0)
(0.120932 0.124106 0)
(0.21675 0.204207 0)
(0.273841 0.193876 0)
(0.343212 0.160116 0)
(0.410622 0.124151 0)
(0.468226 0.0925329 0)
(0.513918 0.0664201 0)
(0.548006 0.0451144 0)
(0.571442 0.0273862 0)
(0.585088 0.0119404 0)
(0.589459 -0.00245493 0)
(0.58465 -0.0169725 0)
(0.57032 -0.0327842 0)
(0.545653 -0.051122 0)
(0.509378 -0.0732301 0)
(0.460081 -0.0999944 0)
(0.397568 -0.130908 0)
(0.327293 -0.161744 0)
(0.269467 -0.178807 0)
(0.155808 -0.115073 0)
(0.422126 0.0508515 0)
(0.600129 0.0824514 0)
(0.656854 0.0761974 0)
(0.71134 0.0614225 0)
(0.756407 0.0465419 0)
(0.790607 0.033912 0)
(0.815257 0.0238144 0)
(0.832157 0.0158425 0)
(0.842797 0.00942121 0)
(0.848175 0.00398592 0)
(0.848836 -0.000972703 0)
(0.844915 -0.0059175 0)
(0.836146 -0.0113004 0)
(0.821817 -0.0176032 0)
(0.800709 -0.0253393 0)
(0.771085 -0.034946 0)
(0.731067 -0.046475 0)
(0.680793 -0.058897 0)
(0.640679 -0.0684628 0)
(0.478764 -0.0468493 0)
)
;

boundaryField
{
    movingWall
    {
        type            fixedValue;
        value           uniform (1 0 0);
    }
    fixedWalls
    {
        type            noSlip;
    }
    frontAndBack
    {
        type            empty;
    }
}


// ************************************************************************* //
