/*--------------------------------*- C++ -*----------------------------------*\
  =========                 |
  \\      /  F ield         | OpenFOAM: The Open Source CFD Toolbox
   \\    /   O peration     | Website:  https://openfoam.org
    \\  /    A nd           | Version:  10
     \\/     M anipulation  |
\*---------------------------------------------------------------------------*/
FoamFile
{
    format      ascii;
    class       volScalarField;
    location    "0.5";
    object      p;
}
// * * * * * * * * * * * * * * * * * * * * * * * * * * * * * * * * * * * * * //

dimensions      [0 2 -2 0 0 0 0];

internalField   nonuniform List<scalar> 
400
(
-0.29196
-0.545334
-0.627004
-0.669197
-0.69117
-0.700692
-0.701954
-0.697553
-0.689319
-0.678701
-0.66696
-0.655255
-0.644681
-0.636117
-0.630176
-0.627257
-0.627409
-0.630093
-0.633986
-0.636749
-0.540067
-0.620988
-0.658417
-0.681682
-0.695253
-0.701159
-0.701026
-0.696278
-0.688188
-0.677951
-0.666704
-0.655474
-0.645271
-0.637002
-0.631319
-0.628609
-0.628954
-0.631988
-0.636542
-0.639595
-0.614437
-0.650368
-0.670093
-0.684096
-0.693065
-0.697083
-0.696602
-0.692386
-0.685311
-0.676291
-0.666299
-0.656242
-0.647038
-0.639507
-0.634265
-0.631747
-0.632184
-0.635465
-0.640619
-0.643565
-0.651713
-0.668618
-0.67998
-0.68885
-0.694618
-0.696841
-0.695549
-0.691172
-0.684328
-0.67574
-0.66624
-0.656613
-0.647725
-0.640401
-0.635276
-0.63283
-0.633439
-0.637253
-0.643462
-0.646591
-0.673725
-0.682525
-0.690575
-0.696822
-0.700365
-0.700858
-0.698323
-0.693098
-0.68566
-0.676603
-0.666698
-0.656652
-0.647292
-0.639477
-0.633918
-0.631203
-0.631888
-0.636382
-0.643891
-0.647418
-0.689799
-0.695342
-0.702702
-0.707787
-0.709755
-0.708614
-0.704546
-0.697941
-0.689232
-0.678936
-0.667806
-0.656521
-0.645892
-0.636834
-0.630181
-0.62669
-0.627144
-0.632213
-0.641029
-0.645036
-0.705299
-0.709623
-0.717438
-0.722061
-0.722773
-0.719987
-0.714111
-0.70565
-0.695068
-0.682844
-0.669723
-0.656389
-0.643662
-0.632526
-0.623973
-0.61899
-0.618657
-0.623944
-0.633891
-0.6383
-0.723725
-0.727579
-0.736155
-0.740463
-0.739885
-0.73525
-0.727207
-0.716395
-0.703344
-0.688529
-0.672665
-0.656441
-0.640713
-0.626544
-0.615107
-0.607683
-0.60573
-0.610593
-0.621291
-0.625808
-0.747773
-0.751269
-0.760395
-0.764086
-0.761831
-0.754897
-0.744185
-0.730454
-0.714286
-0.696198
-0.676832
-0.656843
-0.637123
-0.618832
-0.603338
-0.592264
-0.587533
-0.590972
-0.601736
-0.605845
-0.779916
-0.782756
-0.791792
-0.79413
-0.789433
-0.779448
-0.76538
-0.74807
-0.728074
-0.705972
-0.682325
-0.657684
-0.632918
-0.609273
-0.588325
-0.572076
-0.562997
-0.56354
-0.573208
-0.576145
-0.822783
-0.824279
-0.832074
-0.831803
-0.823451
-0.809301
-0.790939
-0.769277
-0.744723
-0.717843
-0.689114
-0.658942
-0.628076
-0.597749
-0.569711
-0.546365
-0.530808
-0.526298
-0.532994
-0.533585
-0.879494
-0.878456
-0.883091
-0.878209
-0.864422
-0.844565
-0.820669
-0.793718
-0.763904
-0.731593
-0.697059
-0.660533
-0.622552
-0.584196
-0.547252
-0.514461
-0.489581
-0.476871
-0.477626
-0.474025
-0.953999
-0.948501
-0.946833
-0.934203
-0.912409
-0.884813
-0.853847
-0.820481
-0.784675
-0.74645
-0.705653
-0.662158
-0.61617
-0.568461
-0.52067
-0.475687
-0.437824
-0.412427
-0.402649
-0.392088
-1.05149
-1.03848
-1.02539
-1.00017
-0.966653
-0.928686
-0.88885
-0.847885
-0.805383
-0.76086
-0.713621
-0.662968
-0.608504
-0.55042
-0.489907
-0.429666
-0.374213
-0.32983
-0.302475
-0.280952
-1.17887
-1.15354
-1.12069
-1.07556
-1.02512
-0.973515
-0.922839
-0.873242
-0.823788
-0.773136
-0.719783
-0.662262
-0.599343
-0.53032
-0.455497
-0.376785
-0.298147
-0.226144
-0.170568
-0.132373
-1.34503
-1.30002
-1.23369
-1.15785
-1.08369
-1.01491
-0.951929
-0.89327
-0.837022
-0.780905
-0.722444
-0.659161
-0.588706
-0.509101
-0.419181
-0.319143
-0.211013
-0.100018
-0.000429626
0.0624759
-1.56029
-1.48477
-1.36279
-1.24085
-1.13491
-1.04545
-0.96939
-0.902673
-0.841411
-0.781899
-0.72053
-0.653719
-0.577868
-0.489432
-0.385129
-0.262181
-0.1185
0.0452033
0.2113
0.309583
-1.83217
-1.71143
-1.50041
-1.31229
-1.16657
-1.05528
-0.968014
-0.89631
-0.83355
-0.774267
-0.713608
-0.646913
-0.569388
-0.475824
-0.360307
-0.215775
-0.033377
0.195699
0.456517
0.603007
-2.14899
-1.96744
-1.62934
-1.35944
-1.17105
-1.04025
-0.946037
-0.873976
-0.814112
-0.759107
-0.702977
-0.640229
-0.565183
-0.47124
-0.349905
-0.189381
0.0274795
0.323757
0.701472
0.906773
-2.49033
-2.25795
-1.77537
-1.42344
-1.1931
-1.04158
-0.937924
-0.862378
-0.802048
-0.747906
-0.692939
-0.630955
-0.555569
-0.459083
-0.331052
-0.156259
0.0884847
0.43819
0.928472
1.17913
)
;

boundaryField
{
    movingWall
    {
        type            zeroGradient;
    }
    fixedWalls
    {
        type            zeroGradient;
    }
    frontAndBack
    {
        type            empty;
    }
}


// ************************************************************************* //
