/*--------------------------------*- C++ -*----------------------------------*\
  =========                 |
  \\      /  F ield         | OpenFOAM: The Open Source CFD Toolbox
   \\    /   O peration     | Website:  https://openfoam.org
    \\  /    A nd           | Version:  10
     \\/     M anipulation  |
\*---------------------------------------------------------------------------*/
FoamFile
{
    format      ascii;
    class       surfaceScalarField;
    location    "0.5";
    object      phi;
}
// * * * * * * * * * * * * * * * * * * * * * * * * * * * * * * * * * * * * * //

dimensions      [0 3 -1 0 0 0 0];

internalField   nonuniform List<scalar> 
760
(
1.86743e-06
1.90229e-06
1.76995e-06
1.57891e-06
9.29362e-07
1.21801e-06
4.22954e-07
9.3571e-07
4.94057e-08
7.30639e-07
-2.40431e-07
5.76006e-07
-4.65341e-07
4.482e-07
-6.3232e-07
3.32438e-07
-7.43722e-07
2.21288e-07
-8.00672e-07
1.12645e-07
-8.04865e-07
8.0872e-09
-7.60007e-07
-8.87652e-08
-6.73027e-07
-1.72559e-07
-5.53939e-07
-2.36463e-07
-4.15455e-07
-2.73532e-07
-2.7365e-07
-2.782e-07
-1.47946e-07
-2.47254e-07
-5.8162e-08
-1.81897e-07
-1.39723e-08
-9.28963e-08
-1.24925e-08
1.376e-06
1.9028e-06
1.52723e-06
2.05642e-06
9.47391e-07
1.87091e-06
3.16148e-07
1.62314e-06
-2.96022e-07
1.38253e-06
-8.48448e-07
1.15572e-06
-1.31564e-06
9.33707e-07
-1.68008e-06
7.08872e-07
-1.93008e-06
4.78635e-07
-2.05976e-06
2.4557e-07
-2.06928e-06
1.68452e-08
-1.96502e-06
-1.97226e-07
-1.76098e-06
-3.83641e-07
-1.47925e-06
-5.27572e-07
-1.14904e-06
-6.14263e-07
-8.06002e-07
-6.31313e-07
-4.91295e-07
-5.7122e-07
-2.47329e-07
-4.35888e-07
-9.41899e-08
-2.45283e-07
-5.649e-08
8.22212e-07
1.2579e-06
9.27361e-07
2.00319e-06
4.81545e-07
2.23025e-06
-1.51026e-07
2.20958e-06
-8.51516e-07
2.05522e-06
-1.5344e-06
1.81836e-06
-2.13919e-06
1.52237e-06
-2.62421e-06
1.18138e-06
-2.96223e-06
8.0806e-07
-3.13819e-06
4.16966e-07
-3.14809e-06
2.60107e-08
-2.99848e-06
-3.44006e-07
-2.70707e-06
-6.69306e-07
-2.30279e-06
-9.24191e-07
-1.82443e-06
-1.08352e-06
-1.31978e-06
-1.12594e-06
-8.4485e-07
-1.03806e-06
-4.60292e-07
-8.21073e-07
-1.93565e-07
-5.01667e-07
-1.51119e-07
3.71563e-07
1.03604e-06
3.2597e-07
2.0857e-06
-1.15238e-07
2.64455e-06
-7.69822e-07
2.85454e-06
-1.52691e-06
2.81063e-06
-2.28899e-06
2.58072e-06
-2.9789e-06
2.21242e-06
-3.53992e-06
1.74217e-06
-3.93332e-06
1.20124e-06
-4.13625e-06
6.19894e-07
-4.14027e-06
3.02949e-08
-3.95005e-06
-5.3336e-07
-3.58405e-06
-1.03409e-06
-3.07475e-06
-1.43271e-06
-2.46699e-06
-1.6907e-06
-1.81704e-06
-1.77472e-06
-1.19295e-06
-1.66242e-06
-6.73261e-07
-1.3511e-06
-2.94353e-07
-8.70431e-07
-2.97296e-07
3.41738e-08
1.01382e-06
-1.89279e-07
2.32673e-06
-7.09608e-07
3.16445e-06
-1.43201e-06
3.57958e-06
-2.25624e-06
3.63907e-06
-3.08556e-06
3.41409e-06
-3.83848e-06
2.96838e-06
-4.4522e-06
2.35779e-06
-4.88187e-06
1.63216e-06
-5.09947e-06
8.38454e-07
-5.09293e-06
2.4203e-08
-4.86452e-06
-7.61533e-07
-4.43138e-06
-1.46709e-06
-3.82668e-06
-2.03814e-06
-3.09852e-06
-2.42031e-06
-2.30963e-06
-2.56466e-06
-1.53957e-06
-2.43541e-06
-8.85747e-07
-2.02089e-06
-3.94892e-07
-1.34822e-06
-4.92991e-07
-2.18773e-07
1.12333e-06
-6.16579e-07
2.72531e-06
-1.25942e-06
3.81739e-06
-2.08587e-06
4.40959e-06
-2.99597e-06
4.55108e-06
-3.89552e-06
4.31522e-06
-4.70446e-06
3.77859e-06
-5.36002e-06
3.01395e-06
-5.81603e-06
2.08848e-06
-6.04221e-06
1.06524e-06
-6.02413e-06
6.46387e-09
-5.76146e-06
-1.02419e-06
-5.26858e-06
-1.95993e-06
-4.57687e-06
-2.73018e-06
-3.73514e-06
-3.26256e-06
-2.81092e-06
-3.48875e-06
-1.89512e-06
-3.35411e-06
-1.10488e-06
-2.83115e-06
-4.98725e-07
-1.93701e-06
-7.39799e-07
-4.18189e-07
1.332e-06
-9.7867e-07
3.2739e-06
-1.76134e-06
4.61596e-06
-2.71129e-06
5.36156e-06
-3.71957e-06
5.55797e-06
-4.69254e-06
5.28695e-06
-5.55387e-06
4.63939e-06
-6.24456e-06
3.7042e-06
-6.72102e-06
2.56448e-06
-6.95359e-06
1.29795e-06
-6.92674e-06
-2.03238e-08
-6.63742e-06
-1.31383e-06
-6.09591e-06
-2.50156e-06
-5.32934e-06
-3.49642e-06
-4.38425e-06
-4.20633e-06
-3.33066e-06
-4.53972e-06
-2.26987e-06
-4.41665e-06
-1.33945e-06
-3.78519e-06
-6.11074e-07
-2.64281e-06
-1.04227e-06
-5.87378e-07
1.62383e-06
-1.29928e-06
3.96483e-06
-2.22413e-06
5.56222e-06
-3.30139e-06
6.4401e-06
-4.40791e-06
6.66105e-06
-5.44922e-06
6.32538e-06
-6.35426e-06
5.54311e-06
-7.07075e-06
4.42021e-06
-7.56098e-06
3.05416e-06
-7.79879e-06
1.53534e-06
-7.76882e-06
-5.10581e-08
-7.46511e-06
-1.6188e-06
-6.89234e-06
-3.07516e-06
-6.07057e-06
-4.31763e-06
-5.04034e-06
-5.2335e-06
-3.87045e-06
-5.70427e-06
-2.67006e-06
-5.61742e-06
-1.59701e-06
-4.88578e-06
-7.37227e-07
-3.47414e-06
-1.40716e-06
-7.42388e-07
1.9921e-06
-1.59688e-06
4.79136e-06
-2.65667e-06
6.64939e-06
-3.85071e-06
7.63568e-06
-5.04035e-06
7.84637e-06
-6.13114e-06
7.41263e-06
-7.06011e-06
6.47048e-06
-7.78498e-06
5.14493e-06
-8.27714e-06
3.54626e-06
-8.51691e-06
1.77431e-06
-8.49086e-06
-7.91483e-08
-8.18988e-06
-1.92241e-06
-7.6113e-06
-3.65544e-06
-6.76484e-06
-5.16344e-06
-5.68026e-06
-6.31366e-06
-4.4196e-06
-6.95767e-06
-3.09484e-06
-6.9424e-06
-1.88184e-06
-6.13185e-06
-8.81209e-07
-4.44037e-06
-1.84366e-06
-8.94072e-07
2.43564e-06
-1.88387e-06
5.74671e-06
-3.06259e-06
7.86158e-06
-4.34768e-06
8.92282e-06
-5.58704e-06
9.08109e-06
-6.69004e-06
8.51208e-06
-7.60695e-06
7.38548e-06
-8.31015e-06
5.84774e-06
-8.78356e-06
4.02028e-06
-9.01701e-06
2.00762e-06
-9.00131e-06
-9.71246e-08
-8.72461e-06
-2.20229e-06
-8.17517e-06
-4.20656e-06
-7.34852e-06
-5.98842e-06
-6.2577e-06
-7.39829e-06
-4.95023e-06
-8.25651e-06
-3.53257e-06
-8.36159e-06
-2.19276e-06
-7.51222e-06
-1.04475e-06
-5.54769e-06
-2.3626e-06
-1.04949e-06
2.95676e-06
-2.16635e-06
6.82201e-06
-3.43668e-06
9.17121e-06
-4.76813e-06
1.02565e-05
-6.00123e-06
1.0309e-05
-7.05628e-06
9.5639e-06
-7.9043e-06
8.23152e-06
-8.539e-06
6.48102e-06
-8.96114e-06
4.44283e-06
-9.17281e-06
2.22046e-06
-9.17141e-06
-9.90472e-08
-8.94379e-06
-2.43156e-06
-8.46829e-06
-4.68222e-06
-7.72245e-06
-6.73062e-06
-6.69566e-06
-8.41674e-06
-5.41064e-06
-9.53192e-06
-3.95585e-06
-9.82035e-06
-2.52012e-06
-8.9972e-06
-1.22624e-06
-6.79343e-06
-2.97413e-06
-1.21166e-06
3.55966e-06
-2.4422e-06
8.00254e-06
-3.75967e-06
1.05335e-05
-5.06706e-06
1.15658e-05
-6.20937e-06
1.14444e-05
-7.12906e-06
1.04801e-05
-7.82733e-06
8.92798e-06
-8.32698e-06
6.97812e-06
-8.65112e-06
4.76583e-06
-8.81699e-06
2.38717e-06
-8.83022e-06
-8.48774e-08
-8.67808e-06
-2.58296e-06
-8.3297e-06
-5.02842e-06
-7.74246e-06
-7.31225e-06
-6.87545e-06
-9.27415e-06
-5.71453e-06
-1.06838e-05
-4.31254e-06
-1.12303e-05
-2.83977e-06
-1.05283e-05
-1.41772e-06
-8.15869e-06
-3.68476e-06
-1.37614e-06
4.24769e-06
-2.69421e-06
9.26054e-06
-3.98787e-06
1.18766e-05
-5.16516e-06
1.27451e-05
-6.09621e-06
1.23658e-05
-6.76258e-06
1.1141e-05
-7.20624e-06
9.369e-06
-7.48569e-06
7.25424e-06
-7.65103e-06
4.92895e-06
-7.73764e-06
2.4738e-06
-7.76095e-06
-6.00623e-08
-7.7102e-06
-2.63087e-06
-7.54721e-06
-5.18655e-06
-7.20978e-06
-7.64179e-06
-6.62311e-06
-9.85044e-06
-5.7249e-06
-1.1575e-05
-4.51033e-06
-1.24577e-05
-3.10066e-06
-1.20033e-05
-1.59751e-06
-9.59553e-06
-4.49188e-06
-1.52122e-06
5.01705e-06
-2.8732e-06
1.05413e-05
-4.03112e-06
1.30843e-05
-4.92467e-06
1.36404e-05
-5.4817e-06
1.29103e-05
-5.74614e-06
1.13963e-05
-5.81129e-06
9.42955e-06
-5.77446e-06
7.21371e-06
-5.71304e-06
4.8658e-06
-5.6804e-06
2.4423e-06
-5.70274e-06
-3.43193e-08
-5.77392e-06
-2.55426e-06
-5.8525e-06
-5.10018e-06
-5.86131e-06
-7.62248e-06
-5.69374e-06
-1.00067e-05
-5.23295e-06
-1.2031e-05
-4.39318e-06
-1.33135e-05
-3.20356e-06
-1.32559e-05
-1.71671e-06
-1.10052e-05
-5.37228e-06
-1.58455e-06
5.84071e-06
-2.86027e-06
1.17366e-05
-3.70816e-06
1.39714e-05
-4.10478e-06
1.40368e-05
-4.08331e-06
1.28748e-05
-3.77673e-06
1.10758e-05
-3.33521e-06
8.97862e-06
-2.89038e-06
6.76319e-06
-2.54111e-06
4.51418e-06
-2.35343e-06
2.25567e-06
-2.36145e-06
-2.21391e-08
-2.56535e-06
-2.34331e-06
-2.92724e-06
-4.72819e-06
-3.36601e-06
-7.1707e-06
-3.75526e-06
-9.60494e-06
-3.92871e-06
-1.18538e-05
-3.70282e-06
-1.35515e-05
-2.96159e-06
-1.40344e-05
-1.67206e-06
-1.22044e-05
-6.25807e-06
-1.40767e-06
6.6293e-06
-2.38603e-06
1.26323e-05
-2.66132e-06
1.42526e-05
-2.28564e-06
1.36587e-05
-1.45846e-06
1.20405e-05
-4.22586e-07
1.00268e-05
6.2171e-07
7.91924e-06
1.52777e-06
5.84581e-06
2.19414e-06
3.84244e-06
2.55434e-06
1.89518e-06
2.57199e-06
-3.64099e-08
2.23992e-06
-2.00503e-06
1.58421e-06
-4.06331e-06
6.72797e-07
-6.2475e-06
-3.72982e-07
-8.54949e-06
-1.36235e-06
-1.08645e-05
-2.01766e-06
-1.28957e-05
-2.02717e-06
-1.39926e-05
-1.24866e-06
-1.28799e-05
-6.99277e-06
-6.02403e-07
7.14396e-06
-8.57077e-07
1.28139e-05
-1.99899e-07
1.35247e-05
1.24603e-06
1.22278e-05
3.05959e-06
1.02663e-05
4.90087e-06
8.21327e-06
6.55458e-06
6.27792e-06
7.89207e-06
4.51253e-06
8.83734e-06
2.89941e-06
9.34416e-06
1.39039e-06
9.38512e-06
-7.63554e-08
8.9483e-06
-1.56911e-06
8.04023e-06
-3.15797e-06
6.69521e-06
-4.90787e-06
4.99335e-06
-6.86145e-06
3.09948e-06
-8.99641e-06
1.34094e-06
-1.11309e-05
2.45649e-07
-1.27365e-05
9.46168e-09
-1.25531e-05
-7.27112e-06
1.78316e-06
6.92963e-06
3.00698e-06
1.16617e-05
4.96899e-06
1.13951e-05
7.65428e-06
9.65921e-06
1.04325e-05
7.68264e-06
1.29388e-05
5.87127e-06
1.50151e-05
4.31692e-06
1.66024e-05
3.0006e-06
1.76813e-05
1.86687e-06
1.82445e-05
8.50976e-07
1.82844e-05
-1.12732e-07
1.77891e-05
-1.08973e-06
1.67433e-05
-2.14693e-06
1.51333e-05
-3.35378e-06
1.2964e-05
-4.77653e-06
1.03078e-05
-6.45236e-06
7.44077e-06
-8.31865e-06
5.05321e-06
-1.00543e-05
3.1025e-06
-1.0719e-05
-6.67052e-06
8.16987e-06
4.65755e-06
1.18879e-05
7.52498e-06
1.51442e-05
6.95183e-06
1.8693e-05
5.62049e-06
2.18862e-05
4.28925e-06
2.4493e-05
3.15853e-06
2.64946e-05
2.24618e-06
2.79357e-05
1.5143e-06
2.88656e-05
9.12956e-07
2.93185e-05
3.93712e-07
2.93083e-05
-8.76325e-08
2.88272e-05
-5.72379e-07
2.78448e-05
-1.10207e-06
2.63071e-05
-1.72187e-06
2.41419e-05
-2.48051e-06
2.12915e-05
-3.41979e-06
1.78546e-05
-4.54004e-06
1.4542e-05
-5.71559e-06
1.0338e-05
-6.50453e-06
-4.30813e-06
2.53346e-05
3.10888e-05
3.39528e-05
3.65739e-05
3.86231e-05
4.01191e-05
4.11653e-05
4.18563e-05
4.22585e-05
4.2411e-05
4.233e-05
4.20113e-05
4.14285e-05
4.05308e-05
3.92378e-05
3.74429e-05
3.50645e-05
3.26891e-05
2.77129e-05
)
;

boundaryField
{
    movingWall
    {
        type            calculated;
        value           uniform 0;
    }
    fixedWalls
    {
        type            calculated;
        value           uniform 0;
    }
    frontAndBack
    {
        type            empty;
        value           nonuniform List<scalar> 0();
    }
}


// ************************************************************************* //
