/*--------------------------------*- C++ -*----------------------------------*\
  =========                 |
  \\      /  F ield         | OpenFOAM: The Open Source CFD Toolbox
   \\    /   O peration     | Website:  https://openfoam.org
    \\  /    A nd           | Version:  10
     \\/     M anipulation  |
\*---------------------------------------------------------------------------*/
FoamFile
{
    format      ascii;
    class       volVectorField;
    location    "0.5";
    object      U;
}
// * * * * * * * * * * * * * * * * * * * * * * * * * * * * * * * * * * * * * //

dimensions      [0 1 -1 0 0 0 0];

internalField   nonuniform List<vector> 
400
(
(0.0283927 0.0285855 0)
(0.0463046 0.0209191 0)
(0.0244936 0.0147836 0)
(0.0126809 0.0105778 0)
(0.00423722 0.00782332 0)
(-0.00226099 0.00593621 0)
(-0.00735625 0.00450472 0)
(-0.0112574 0.0032892 0)
(-0.0140354 0.00216842 0)
(-0.0157135 0.00109877 0)
(-0.0163134 8.39273e-05 0)
(-0.0158812 -0.000850051 0)
(-0.0145191 -0.00165596 0)
(-0.012402 -0.00226532 0)
(-0.00975562 -0.00260835 0)
(-0.00686259 -0.00263374 0)
(-0.00408341 -0.00231437 0)
(-0.00183444 -0.00166432 0)
(-0.000492045 -0.000796934 0)
(-6.68447e-05 -4.90426e-05 0)
(0.019179 0.047506 0)
(0.0358612 0.0422373 0)
(0.0252281 0.0339369 0)
(0.0126675 0.0268506 0)
(-2.16177e-05 0.0214022 0)
(-0.0118193 0.017104 0)
(-0.0221187 0.0134233 0)
(-0.030507 0.0100083 0)
(-0.0366962 0.00668311 0)
(-0.040507 0.00340703 0)
(-0.0418835 0.000239561 0)
(-0.0408875 -0.00270056 0)
(-0.0377134 -0.00524641 0)
(-0.0327258 -0.00719318 0)
(-0.0264441 -0.00833293 0)
(-0.0195176 -0.00849426 0)
(-0.0127225 -0.00757581 0)
(-0.00692935 -0.00561155 0)
(-0.00296382 -0.00291892 0)
(-0.000803774 -0.000450659 0)
(0.0111612 0.0286061 0)
(0.0217273 0.0400193 0)
(0.0153672 0.0408994 0)
(0.00389466 0.0380748 0)
(-0.0099357 0.0338991 0)
(-0.0241249 0.0291247 0)
(-0.037251 0.023925 0)
(-0.0483167 0.0183466 0)
(-0.0566517 0.0124623 0)
(-0.0618377 0.00641579 0)
(-0.0636897 0.000434246 0)
(-0.0622337 -0.00518847 0)
(-0.0577053 -0.0100992 0)
(-0.0505773 -0.0139097 0)
(-0.0415343 -0.0162376 0)
(-0.031443 -0.0167583 0)
(-0.021348 -0.015273 0)
(-0.012446 -0.011824 0)
(-0.00596571 -0.00689239 0)
(-0.0017769 -0.00180894 0)
(0.00528404 0.0217098 0)
(0.00957847 0.0401084 0)
(0.00346033 0.0483108 0)
(-0.00806987 0.0503084 0)
(-0.022723 0.0483097 0)
(-0.0383535 0.0436097 0)
(-0.0532061 0.0369699 0)
(-0.0659499 0.0289086 0)
(-0.0756468 0.0198601 0)
(-0.081686 0.0102628 0)
(-0.0837641 0.000606184 0)
(-0.0818467 -0.00857176 0)
(-0.0761555 -0.016673 0)
(-0.0672065 -0.0230579 0)
(-0.0557833 -0.0271031 0)
(-0.0428962 -0.0282793 0)
(-0.0297855 -0.0262494 0)
(-0.0179325 -0.021019 0)
(-0.008998 -0.0131743 0)
(-0.00277612 -0.00423584 0)
(0.00120374 0.0197318 0)
(0.000163212 0.0433195 0)
(-0.00773436 0.0574712 0)
(-0.0206499 0.063873 0)
(-0.0366305 0.0641157 0)
(-0.053619 0.059619 0)
(-0.0698034 0.0515267 0)
(-0.0837358 0.0407782 0)
(-0.0943522 0.0281894 0)
(-0.100923 0.0145329 0)
(-0.103056 0.000605614 0)
(-0.100661 -0.0127626 0)
(-0.0939193 -0.0246906 0)
(-0.0833357 -0.0342505 0)
(-0.0697315 -0.040525 0)
(-0.0542091 -0.0427093 0)
(-0.038176 -0.0402475 0)
(-0.023407 -0.0330251 0)
(-0.0120229 -0.021643 0)
(-0.0037728 -0.00765601 0)
(-0.00168016 0.0208209 0)
(-0.00707074 0.0497497 0)
(-0.0175924 0.0691069 0)
(-0.0327843 0.0793102 0)
(-0.0506506 0.0814469 0)
(-0.0691884 0.0769444 0)
(-0.0866322 0.0672085 0)
(-0.101546 0.0535335 0)
(-0.112855 0.0370971 0)
(-0.119786 0.0190052 0)
(-0.121902 0.000362504 0)
(-0.119064 -0.0176987 0)
(-0.111395 -0.0339931 0)
(-0.0993481 -0.0472752 0)
(-0.0837266 -0.0562875 0)
(-0.0656789 -0.0598769 0)
(-0.0467581 -0.0571691 0)
(-0.0290469 -0.0478104 0)
(-0.0151485 -0.0322859 0)
(-0.0048005 -0.0120636 0)
(-0.00385546 0.0241122 0)
(-0.0128721 0.0592626 0)
(-0.0262747 0.0835888 0)
(-0.044179 0.0970732 0)
(-0.0642728 0.100596 0)
(-0.08451 0.0956644 0)
(-0.103192 0.0839352 0)
(-0.118963 0.0670245 0)
(-0.130819 0.0464421 0)
(-0.138022 0.0236044 0)
(-0.140122 -0.000103949 0)
(-0.136947 -0.0232688 0)
(-0.128549 -0.044404 0)
(-0.115287 -0.0619319 0)
(-0.0978864 -0.0742147 0)
(-0.0774836 -0.0796733 0)
(-0.0557426 -0.0769954 0)
(-0.0350521 -0.0654354 0)
(-0.0185258 -0.0451943 0)
(-0.00591716 -0.0175283 0)
(-0.00564997 0.0291676 0)
(-0.0178452 0.0716933 0)
(-0.0341261 0.10105 0)
(-0.0548392 0.117389 0)
(-0.0772162 0.121723 0)
(-0.0991 0.115814 0)
(-0.118869 0.10164 0)
(-0.135302 0.0811436 0)
(-0.147528 0.0561369 0)
(-0.154911 0.0283136 0)
(-0.15704 -0.000709004 0)
(-0.153712 -0.0292846 0)
(-0.144892 -0.0556583 0)
(-0.130802 -0.077925 0)
(-0.112021 -0.0940384 0)
(-0.0895928 -0.101916 0)
(-0.0652252 -0.0996704 0)
(-0.0415774 -0.0859722 0)
(-0.0223028 -0.0605179 0)
(-0.00718629 -0.0241625 0)
(-0.00727579 0.0357854 0)
(-0.0224197 0.0868999 0)
(-0.0414556 0.121439 0)
(-0.064811 0.140215 0)
(-0.0892173 0.144719 0)
(-0.112397 0.137201 0)
(-0.132849 0.120084 0)
(-0.149556 0.0956648 0)
(-0.161844 0.0660296 0)
(-0.169242 0.0331001 0)
(-0.171434 -0.00133332 0)
(-0.1682 -0.0354675 0)
(-0.159395 -0.0673479 0)
(-0.145057 -0.0947803 0)
(-0.125536 -0.115302 0)
(-0.101674 -0.126255 0)
(-0.0751097 -0.125026 0)
(-0.0486838 -0.109459 0)
(-0.0265897 -0.0784477 0)
(-0.00865863 -0.032124 0)
(-0.00887317 0.0438988 0)
(-0.0268897 0.104755 0)
(-0.048465 0.144537 0)
(-0.0740387 0.165212 0)
(-0.0998686 0.169136 0)
(-0.123613 0.159304 0)
(-0.143989 0.138735 0)
(-0.160289 0.110132 0)
(-0.172117 0.0758209 0)
(-0.179226 0.0378724 0)
(-0.181455 -0.00183261 0)
(-0.178598 -0.0414291 0)
(-0.170387 -0.0788695 0)
(-0.15662 -0.111757 0)
(-0.13732 -0.137245 0)
(-0.112988 -0.152052 0)
(-0.0850214 -0.15267 0)
(-0.0562815 -0.135815 0)
(-0.0314287 -0.0991669 0)
(-0.0103613 -0.0416225 0)
(-0.0105366 0.0535269 0)
(-0.0314431 0.125114 0)
(-0.0552111 0.169927 0)
(-0.0822563 0.1917 0)
(-0.108469 0.194108 0)
(-0.13158 0.181179 0)
(-0.150671 0.156684 0)
(-0.165501 0.123777 0)
(-0.176059 0.0849901 0)
(-0.182387 0.0424326 0)
(-0.184526 -0.00205237 0)
(-0.182331 -0.0466625 0)
(-0.175421 -0.0893928 0)
(-0.16331 -0.12778 0)
(-0.145588 -0.158687 0)
(-0.122239 -0.178209 0)
(-0.0941868 -0.181794 0)
(-0.0640473 -0.164674 0)
(-0.0367574 -0.122741 0)
(-0.0122921 -0.0528814 0)
(-0.0123164 0.0647436 0)
(-0.0361502 0.147767 0)
(-0.0615378 0.196922 0)
(-0.0888491 0.218558 0)
(-0.113833 0.218251 0)
(-0.134542 0.201377 0)
(-0.150621 0.172576 0)
(-0.162472 0.135463 0)
(-0.170607 0.0927232 0)
(-0.175438 0.046386 0)
(-0.177242 -0.00190952 0)
(-0.175967 -0.0505999 0)
(-0.171156 -0.0978959 0)
(-0.162032 -0.141445 0)
(-0.147667 -0.177983 0)
(-0.127351 -0.203068 0)
(-0.10123 -0.21102 0)
(-0.0712719 -0.195214 0)
(-0.0423189 -0.148997 0)
(-0.0143897 -0.0660839 0)
(-0.014182 0.0776426 0)
(-0.0408635 0.172335 0)
(-0.0669051 0.22442 0)
(-0.0926096 0.244075 0)
(-0.113997 0.239525 0)
(-0.129851 0.217828 0)
(-0.140652 0.184543 0)
(-0.147598 0.143662 0)
(-0.15183 0.0979099 0)
(-0.154211 0.0491008 0)
(-0.155294 -0.00148558 0)
(-0.155144 -0.0527184 0)
(-0.153264 -0.103241 0)
(-0.148624 -0.151045 0)
(-0.139767 -0.192983 0)
(-0.125157 -0.224284 0)
(-0.103839 -0.23819 0)
(-0.0765742 -0.225918 0)
(-0.0474523 -0.177351 0)
(-0.0164479 -0.0813063 0)
(-0.0159092 0.092265 0)
(-0.0449398 0.198087 0)
(-0.069988 0.250644 0)
(-0.0912567 0.265728 0)
(-0.10573 0.255107 0)
(-0.113538 0.22781 0)
(-0.116308 0.190217 0)
(-0.116144 0.146508 0)
(-0.114835 0.0992482 0)
(-0.113687 0.0498513 0)
(-0.113529 -0.000916914 0)
(-0.114581 -0.0525164 0)
(-0.116376 -0.104221 0)
(-0.117724 -0.154627 0)
(-0.116729 -0.201035 0)
(-0.111021 -0.238716 0)
(-0.098297 -0.260119 0)
(-0.0774301 -0.254214 0)
(-0.0507125 -0.20647 0)
(-0.0179558 -0.098369 0)
(-0.0167955 0.108417 0)
(-0.0465866 0.223567 0)
(-0.0678242 0.272727 0)
(-0.0805024 0.279888 0)
(-0.0836888 0.261305 0)
(-0.0796434 0.228043 0)
(-0.0714259 0.186965 0)
(-0.0619826 0.142041 0)
(-0.0536325 0.0953839 0)
(-0.0480117 0.0478405 0)
(-0.0461255 -0.000455858 0)
(-0.0483324 -0.049654 0)
(-0.0542818 -0.0997862 0)
(-0.062808 -0.150273 0)
(-0.0718324 -0.199234 0)
(-0.078378 -0.242524 0)
(-0.0787705 -0.272421 0)
(-0.0693424 -0.276023 0)
(-0.0491211 -0.233736 0)
(-0.0177613 -0.116522 0)
(-0.0149467 0.125211 0)
(-0.0413601 0.245898 0)
(-0.0540812 0.286127 0)
(-0.0523717 0.281586 0)
(-0.0390539 0.253688 0)
(-0.0192844 0.21499 0)
(0.00238093 0.17218 0)
(0.0224875 0.128487 0)
(0.0386234 0.0851831 0)
(0.0491422 0.0423861 0)
(0.0530314 -0.000429706 0)
(0.0498484 -0.0440784 0)
(0.0397485 -0.0893416 0)
(0.02362 -0.136556 0)
(0.0032919 -0.184964 0)
(-0.0182112 -0.231629 0)
(-0.0362829 -0.26964 0)
(-0.0444233 -0.285354 0)
(-0.0366634 -0.254441 0)
(-0.013283 -0.133801 0)
(-0.00540256 0.139961 0)
(-0.0186935 0.259394 0)
(-0.0155895 0.283977 0)
(0.00759356 0.264764 0)
(0.0422475 0.22793 0)
(0.0801362 0.186082 0)
(0.115899 0.14459 0)
(0.146284 0.105346 0)
(0.169398 0.0685144 0)
(0.184095 0.0334212 0)
(0.189671 -0.00102669 0)
(0.185734 -0.0361229 0)
(0.172198 -0.0731909 0)
(0.149411 -0.113344 0)
(0.118398 -0.157016 0)
(0.0813364 -0.20295 0)
(0.0426427 -0.246187 0)
(0.0109948 -0.274348 0)
(-0.00116883 -0.260755 0)
(0.0015473 -0.14591 0)
(0.0252953 0.145798 0)
(0.0460311 0.253163 0)
(0.074248 0.257011 0)
(0.124512 0.224347 0)
(0.181659 0.182721 0)
(0.235642 0.142449 0)
(0.281911 0.106527 0)
(0.318694 0.0751556 0)
(0.345401 0.0474619 0)
(0.36185 0.0221943 0)
(0.367928 -0.00202753 0)
(0.363447 -0.0266415 0)
(0.348119 -0.0531281 0)
(0.321612 -0.0829704 0)
(0.28372 -0.117442 0)
(0.234841 -0.156906 0)
(0.177472 -0.19905 0)
(0.120159 -0.235111 0)
(0.0819693 -0.24137 0)
(0.0421306 -0.144935 0)
(0.117867 0.131388 0)
(0.208928 0.213304 0)
(0.266589 0.198793 0)
(0.339178 0.162021 0)
(0.408543 0.124584 0)
(0.466904 0.0924019 0)
(0.512814 0.0661495 0)
(0.546969 0.0448685 0)
(0.570459 0.027213 0)
(0.584165 0.0118447 0)
(0.588575 -0.00248177 0)
(0.583756 -0.0169477 0)
(0.569332 -0.0327492 0)
(0.54446 -0.051181 0)
(0.507826 -0.0736191 0)
(0.45785 -0.101188 0)
(0.393811 -0.133696 0)
(0.320372 -0.167061 0)
(0.261307 -0.187391 0)
(0.152211 -0.121886 0)
(0.419976 0.0549142 0)
(0.593408 0.0876955 0)
(0.650142 0.0792805 0)
(0.707972 0.0627984 0)
(0.754983 0.0469855 0)
(0.789941 0.0339392 0)
(0.814822 0.0236977 0)
(0.831788 0.0157037 0)
(0.842464 0.00930518 0)
(0.847877 0.00390375 0)
(0.848563 -0.00102353 0)
(0.844639 -0.00594749 0)
(0.835811 -0.0113337 0)
(0.821329 -0.0176939 0)
(0.799901 -0.0256012 0)
(0.769611 -0.0356033 0)
(0.728105 -0.0479062 0)
(0.674477 -0.0615626 0)
(0.633088 -0.0727903 0)
(0.475426 -0.0504392 0)
)
;

boundaryField
{
    movingWall
    {
        type            fixedValue;
        value           uniform (1 0 0);
    }
    fixedWalls
    {
        type            noSlip;
    }
    frontAndBack
    {
        type            empty;
    }
}


// ************************************************************************* //
