/*--------------------------------*- C++ -*----------------------------------*\
  =========                 |
  \\      /  F ield         | OpenFOAM: The Open Source CFD Toolbox
   \\    /   O peration     | Website:  https://openfoam.org
    \\  /    A nd           | Version:  10
     \\/     M anipulation  |
\*---------------------------------------------------------------------------*/
FoamFile
{
    format      ascii;
    class       volScalarField;
    location    "0.3";
    object      p;
}
// * * * * * * * * * * * * * * * * * * * * * * * * * * * * * * * * * * * * * //

dimensions      [0 2 -2 0 0 0 0];

internalField   nonuniform List<scalar> 
400
(
-0.260655
-0.49588
-0.581597
-0.62506
-0.647283
-0.656832
-0.658127
-0.653801
-0.645678
-0.635207
-0.623628
-0.612044
-0.601567
-0.59309
-0.587168
-0.584176
-0.584228
-0.586823
-0.590556
-0.593101
-0.491106
-0.568118
-0.61075
-0.636653
-0.651176
-0.657375
-0.657345
-0.652671
-0.644645
-0.634475
-0.623326
-0.61218
-0.60201
-0.593746
-0.588048
-0.585299
-0.585606
-0.58858
-0.5929
-0.595676
-0.569948
-0.603202
-0.625518
-0.640867
-0.650135
-0.654065
-0.653434
-0.64911
-0.641957
-0.632869
-0.622842
-0.61276
-0.603496
-0.595886
-0.590577
-0.588036
-0.588521
-0.591833
-0.596721
-0.59938
-0.608701
-0.624202
-0.636641
-0.645992
-0.651702
-0.653701
-0.652214
-0.647728
-0.640836
-0.632213
-0.622712
-0.613089
-0.604147
-0.596725
-0.591523
-0.589088
-0.58981
-0.593678
-0.599478
-0.602237
-0.631106
-0.639071
-0.647306
-0.653635
-0.657061
-0.657376
-0.654697
-0.64942
-0.642013
-0.632991
-0.623132
-0.613131
-0.603741
-0.595815
-0.590157
-0.587471
-0.588334
-0.592911
-0.599855
-0.602933
-0.647333
-0.652215
-0.659208
-0.664227
-0.666143
-0.664919
-0.660768
-0.654145
-0.645524
-0.635317
-0.624248
-0.612997
-0.602321
-0.593124
-0.586344
-0.582893
-0.58359
-0.588782
-0.596884
-0.600386
-0.662959
-0.66664
-0.673724
-0.678253
-0.679
-0.676222
-0.670314
-0.661841
-0.65136
-0.639252
-0.626186
-0.61284
-0.600011
-0.588696
-0.580005
-0.575095
-0.575079
-0.58052
-0.589571
-0.593385
-0.681513
-0.684685
-0.692256
-0.69648
-0.696017
-0.691456
-0.683427
-0.672598
-0.659623
-0.644915
-0.629092
-0.612815
-0.596929
-0.582552
-0.571005
-0.563739
-0.562204
-0.567226
-0.576778
-0.580538
-0.705696
-0.708446
-0.716298
-0.719915
-0.717842
-0.711016
-0.700356
-0.686608
-0.670478
-0.652448
-0.633098
-0.613046
-0.593161
-0.574683
-0.55916
-0.548384
-0.5442
-0.547762
-0.557032
-0.560189
-0.737977
-0.739999
-0.747438
-0.749681
-0.745229
-0.735375
-0.72138
-0.704066
-0.684087
-0.661986
-0.638319
-0.613627
-0.588756
-0.565026
-0.544195
-0.528418
-0.520002
-0.520554
-0.528257
-0.530072
-0.780953
-0.78158
-0.787386
-0.786933
-0.778898
-0.764927
-0.746661
-0.725012
-0.700479
-0.673571
-0.6448
-0.614612
-0.583749
-0.553515
-0.525812
-0.503135
-0.48831
-0.483577
-0.487692
-0.487028
-0.837663
-0.835781
-0.837999
-0.832765
-0.819347
-0.799759
-0.776016
-0.749116
-0.719341
-0.687011
-0.652453
-0.615969
-0.578133
-0.5401
-0.503771
-0.471874
-0.447733
-0.43443
-0.431874
-0.426923
-0.911909
-0.905744
-0.901263
-0.888031
-0.866579
-0.839353
-0.808643
-0.775428
-0.739728
-0.701546
-0.66079
-0.617419
-0.571718
-0.524572
-0.477697
-0.433829
-0.396623
-0.370124
-0.356304
-0.344493
-1.00859
-0.995345
-0.979184
-0.95305
-0.919742
-0.882242
-0.842843
-0.802243
-0.76001
-0.715667
-0.668593
-0.61818
-0.564151
-0.506853
-0.447514
-0.388505
-0.33345
-0.287343
-0.255494
-0.233357
-1.13392
-1.10934
-1.07358
-1.02722
-0.976743
-0.925695
-0.875753
-0.82687
-0.777952
-0.727671
-0.674635
-0.6175
-0.555195
-0.487182
-0.413723
-0.336201
-0.257509
-0.183249
-0.123643
-0.0864696
-1.2954
-1.25326
-1.18548
-1.10828
-1.03362
-0.965271
-0.903223
-0.845669
-0.790371
-0.734967
-0.677079
-0.614396
-0.544773
-0.466395
-0.377964
-0.278989
-0.170394
-0.0572489
0.0438476
0.102613
-1.50056
-1.43234
-1.31363
-1.19087
-1.08354
-0.993996
-0.918916
-0.853601
-0.793675
-0.735249
-0.674755
-0.608776
-0.533934
-0.446842
-0.344077
-0.222185
-0.078225
0.0858644
0.247042
0.3359
-1.7518
-1.64683
-1.4509
-1.26505
-1.11715
-1.00442
-0.917282
-0.846599
-0.785069
-0.726882
-0.667115
-0.601202
-0.524527
-0.432059
-0.317897
-0.174679
0.00651176
0.231091
0.473859
0.60251
-2.03046
-1.8787
-1.57966
-1.32045
-1.13046
-0.996353
-0.900114
-0.827242
-0.767184
-0.712156
-0.65596
-0.593056
-0.517847
-0.423949
-0.303189
-0.144265
0.0684695
0.351532
0.689181
0.86472
-2.29746
-2.10771
-1.70098
-1.37724
-1.15244
-1.00004
-0.894703
-0.817937
-0.756818
-0.702086
-0.646579
-0.584066
-0.508308
-0.412012
-0.285478
-0.11499
0.119196
0.442764
0.864445
1.07571
)
;

boundaryField
{
    movingWall
    {
        type            zeroGradient;
    }
    fixedWalls
    {
        type            zeroGradient;
    }
    frontAndBack
    {
        type            empty;
    }
}


// ************************************************************************* //
