/*--------------------------------*- C++ -*----------------------------------*\
  =========                 |
  \\      /  F ield         | OpenFOAM: The Open Source CFD Toolbox
   \\    /   O peration     | Website:  https://openfoam.org
    \\  /    A nd           | Version:  10
     \\/     M anipulation  |
\*---------------------------------------------------------------------------*/
FoamFile
{
    format      ascii;
    class       surfaceScalarField;
    location    "0.3";
    object      phi;
}
// * * * * * * * * * * * * * * * * * * * * * * * * * * * * * * * * * * * * * //

dimensions      [0 3 -1 0 0 0 0];

internalField   nonuniform List<scalar> 
760
(
1.78938e-06
1.82995e-06
1.75315e-06
1.58252e-06
9.63503e-07
1.23239e-06
4.47548e-07
9.54901e-07
6.5891e-08
7.49546e-07
-2.27975e-07
5.92024e-07
-4.54481e-07
4.60676e-07
-6.21978e-07
3.4166e-07
-7.33593e-07
2.27636e-07
-7.91019e-07
1.16336e-07
-7.96188e-07
9.52184e-09
-7.52573e-07
-8.91899e-08
-6.67017e-07
-1.74831e-07
-5.4974e-07
-2.4047e-07
-4.13237e-07
-2.7847e-07
-2.73166e-07
-2.82915e-07
-1.49123e-07
-2.51095e-07
-6.08852e-08
-1.85257e-07
-1.65327e-08
-9.68476e-08
-1.55357e-08
1.37065e-06
1.89249e-06
1.58119e-06
2.11962e-06
1.03022e-06
1.92814e-06
3.78807e-07
1.66906e-06
-2.5272e-07
1.41744e-06
-8.1619e-07
1.18126e-06
-1.28841e-06
9.5195e-07
-1.65498e-06
7.21809e-07
-1.90607e-06
4.8777e-07
-2.03689e-06
2.51682e-07
-2.04844e-06
2.04773e-08
-1.9471e-06
-1.95659e-07
-1.74626e-06
-3.84158e-07
-1.46777e-06
-5.30137e-07
-1.14092e-06
-6.18025e-07
-8.01624e-07
-6.34866e-07
-4.91586e-07
-5.73754e-07
-2.51975e-07
-4.38211e-07
-9.8981e-08
-2.49374e-07
-6.01284e-08
8.272e-07
1.29528e-06
9.76574e-07
2.0873e-06
5.54178e-07
2.2984e-06
-9e-08
2.2566e-06
-8.0437e-07
2.08603e-06
-1.49525e-06
1.83822e-06
-2.10316e-06
1.53536e-06
-2.58918e-06
1.19061e-06
-2.92789e-06
8.15781e-07
-3.10509e-06
4.24273e-07
-3.11751e-06
3.32593e-08
-2.97168e-06
-3.36806e-07
-2.68444e-06
-6.62573e-07
-2.28409e-06
-9.18405e-07
-1.80962e-06
-1.07848e-06
-1.30989e-06
-1.12085e-06
-8.42227e-07
-1.0327e-06
-4.64869e-07
-8.17042e-07
-1.99211e-07
-5.0183e-07
-1.53201e-07
3.78987e-07
1.06032e-06
3.61825e-07
2.14074e-06
-6.1677e-08
2.6875e-06
-7.18447e-07
2.88109e-06
-1.48038e-06
2.82557e-06
-2.24432e-06
2.58895e-06
-2.9335e-06
2.21754e-06
-3.49326e-06
1.74697e-06
-3.88636e-06
1.20791e-06
-4.09053e-06
6.29384e-07
-4.09776e-06
4.25186e-08
-3.91252e-06
-5.18892e-07
-3.55196e-06
-1.01822e-06
-3.04753e-06
-1.41643e-06
-2.44451e-06
-1.67458e-06
-1.80125e-06
-1.75881e-06
-1.18778e-06
-1.64738e-06
-6.78639e-07
-1.33941e-06
-3.01508e-07
-8.65848e-07
-2.97596e-07
3.82515e-08
1.02719e-06
-1.67654e-07
2.35553e-06
-6.71822e-07
3.18349e-06
-1.38754e-06
3.58803e-06
-2.20821e-06
3.64142e-06
-3.03364e-06
3.41435e-06
-3.78208e-06
2.96922e-06
-4.39226e-06
2.3612e-06
-4.82072e-06
1.63998e-06
-5.03973e-06
8.5146e-07
-5.03718e-06
4.19423e-08
-4.81494e-06
-7.39948e-07
-4.38861e-06
-1.44265e-06
-3.78994e-06
-2.01195e-06
-3.06761e-06
-2.39343e-06
-2.2874e-06
-2.5381e-06
-1.53171e-06
-2.41093e-06
-8.92091e-07
-2.002e-06
-4.03711e-07
-1.33952e-06
-4.9216e-07
-2.20026e-07
1.13008e-06
-6.06703e-07
2.73679e-06
-1.23177e-06
3.81939e-06
-2.04368e-06
4.40448e-06
-2.94343e-06
4.54359e-06
-3.83459e-06
4.309e-06
-4.63613e-06
3.77594e-06
-5.2862e-06
3.01627e-06
-5.7402e-06
2.09716e-06
-5.96807e-06
1.08107e-06
-5.95475e-06
2.90697e-08
-5.69909e-06
-9.9576e-07
-5.21391e-06
-1.92667e-06
-4.52919e-06
-2.69314e-06
-3.69457e-06
-3.22317e-06
-2.78147e-06
-3.4492e-06
-1.88426e-06
-3.31787e-06
-1.11222e-06
-2.80346e-06
-5.09275e-07
-1.92362e-06
-7.38153e-07
-4.24526e-07
1.33441e-06
-9.77234e-07
3.27348e-06
-1.73887e-06
4.60441e-06
-2.66745e-06
5.34381e-06
-3.65997e-06
5.53966e-06
-4.62115e-06
5.27207e-06
-5.47297e-06
4.63061e-06
-6.15667e-06
3.70285e-06
-6.63028e-06
2.57161e-06
-6.86454e-06
1.31443e-06
-6.84285e-06
5.70163e-09
-6.56086e-06
-1.27871e-06
-6.02731e-06
-2.45812e-06
-5.26831e-06
-3.44583e-06
-4.33195e-06
-4.15068e-06
-3.29283e-06
-4.48282e-06
-2.25601e-06
-4.3644e-06
-1.34855e-06
-3.74543e-06
-6.2407e-07
-2.62291e-06
-1.0393e-06
-5.97933e-07
1.62267e-06
-1.30357e-06
3.95435e-06
-2.2033e-06
5.53698e-06
-3.253e-06
6.40744e-06
-4.33916e-06
6.62837e-06
-5.36586e-06
6.29765e-06
-6.25984e-06
5.52388e-06
-6.96826e-06
4.41135e-06
-7.45467e-06
3.05677e-06
-7.69347e-06
1.55034e-06
-7.66827e-06
-2.27322e-08
-7.37153e-06
-1.57665e-06
-6.80641e-06
-3.01947e-06
-5.99263e-06
-4.24988e-06
-4.97332e-06
-5.15707e-06
-3.82275e-06
-5.62525e-06
-2.65352e-06
-5.54486e-06
-1.60934e-06
-4.83067e-06
-7.53936e-07
-3.44583e-06
-1.40193e-06
-7.56408e-07
1.98712e-06
-1.60513e-06
4.77029e-06
-2.63511e-06
6.60815e-06
-3.79548e-06
7.58411e-06
-4.9605e-06
7.79468e-06
-6.03401e-06
7.36747e-06
-6.95051e-06
6.43651e-06
-7.66648e-06
5.12499e-06
-8.1538e-06
3.54197e-06
-8.39314e-06
1.78679e-06
-8.37033e-06
-4.8436e-08
-8.07503e-06
-1.87208e-06
-7.50341e-06
-3.58519e-06
-6.66562e-06
-5.07515e-06
-5.59518e-06
-6.21243e-06
-4.36049e-06
-6.85255e-06
-3.07608e-06
-6.84612e-06
-1.8989e-06
-6.05886e-06
-9.02668e-07
-4.40216e-06
-1.83539e-06
-9.10825e-07
2.42548e-06
-1.89482e-06
5.71272e-06
-3.03844e-06
7.80081e-06
-4.28324e-06
8.84769e-06
-5.4936e-06
9.00547e-06
-6.57672e-06
8.44517e-06
-7.47967e-06
7.33325e-06
-8.17319e-06
5.81405e-06
-8.64081e-06
4.00746e-06
-8.87204e-06
2.01725e-06
-8.85714e-06
-6.32997e-08
-8.58388e-06
-2.14251e-06
-8.04031e-06
-4.12022e-06
-7.22349e-06
-5.87776e-06
-6.15136e-06
-7.27005e-06
-4.87837e-06
-8.12278e-06
-3.51204e-06
-8.23899e-06
-2.21543e-06
-7.41878e-06
-1.07115e-06
-5.49737e-06
-2.35028e-06
-1.06751e-06
2.93863e-06
-2.17809e-06
6.77073e-06
-3.4076e-06
9.08634e-06
-4.69135e-06
1.01529e-05
-5.89071e-06
1.02044e-05
-6.9234e-06
9.4709e-06
-7.75618e-06
8.15775e-06
-8.38052e-06
6.43131e-06
-8.79607e-06
4.42005e-06
-9.00381e-06
2.22657e-06
-9.00048e-06
-6.22634e-08
-8.77342e-06
-2.36253e-06
-8.3022e-06
-4.58047e-06
-7.56751e-06
-6.59864e-06
-6.56492e-06
-8.26224e-06
-5.32428e-06
-9.36925e-06
-3.93282e-06
-9.66944e-06
-2.54757e-06
-8.87958e-06
-1.25642e-06
-6.72624e-06
-2.9551e-06
-1.22751e-06
3.52833e-06
-2.45038e-06
7.92636e-06
-3.72166e-06
1.04182e-05
-4.97379e-06
1.14288e-05
-6.07729e-06
1.13062e-05
-6.9724e-06
1.03569e-05
-7.65476e-06
8.82956e-06
-8.14396e-06
6.91033e-06
-8.46119e-06
4.73157e-06
-8.62189e-06
2.3883e-06
-8.63077e-06
-4.697e-08
-8.47613e-06
-2.50727e-06
-8.12982e-06
-4.91479e-06
-7.5544e-06
-7.16307e-06
-6.71683e-06
-9.09706e-06
-5.61011e-06
-1.04938e-05
-4.28293e-06
-1.10489e-05
-2.86703e-06
-1.03797e-05
-1.4476e-06
-8.06436e-06
-3.65212e-06
-1.38278e-06
4.19339e-06
-2.68974e-06
9.14636e-06
-3.93354e-06
1.17223e-05
-5.04976e-06
1.25701e-05
-5.93765e-06
1.21917e-05
-6.57767e-06
1.09859e-05
-7.00559e-06
9.24486e-06
-7.27562e-06
7.16758e-06
-7.43486e-06
4.88215e-06
-7.51613e-06
2.46779e-06
-7.53357e-06
-2.47685e-08
-7.47751e-06
-2.55385e-06
-7.31363e-06
-5.06761e-06
-6.98711e-06
-7.48246e-06
-6.43299e-06
-9.65668e-06
-5.59598e-06
-1.13598e-05
-4.46392e-06
-1.22411e-05
-3.11462e-06
-1.18094e-05
-1.61697e-06
-9.45211e-06
-4.43004e-06
-1.50551e-06
4.92137e-06
-2.83874e-06
1.0367e-05
-3.94692e-06
1.28809e-05
-4.77882e-06
1.34275e-05
-5.29151e-06
1.27047e-05
-5.52943e-06
1.12145e-05
-5.58036e-06
9.28357e-06
-5.5367e-06
7.11011e-06
-5.47164e-06
4.80624e-06
-5.43497e-06
2.42635e-06
-5.45103e-06
-7.29329e-09
-5.51451e-06
-2.48424e-06
-5.58855e-06
-4.98628e-06
-5.60519e-06
-7.46406e-06
-5.4692e-06
-9.80552e-06
-5.0698e-06
-1.17936e-05
-4.3108e-06
-1.30525e-05
-3.17818e-06
-1.29908e-05
-1.70573e-06
-1.07716e-05
-5.25144e-06
-1.52245e-06
5.67025e-06
-2.76393e-06
1.14653e-05
-3.57029e-06
1.37094e-05
-3.91653e-06
1.37964e-05
-3.85759e-06
1.26562e-05
-3.52845e-06
1.08861e-05
-3.07652e-06
8.82586e-06
-2.62926e-06
6.65232e-06
-2.2804e-06
4.44612e-06
-2.09125e-06
2.2291e-06
-2.09331e-06
-8.76238e-09
-2.28724e-06
-2.29015e-06
-2.64008e-06
-4.63318e-06
-3.08081e-06
-7.02957e-06
-3.49431e-06
-9.41166e-06
-3.71735e-06
-1.16018e-05
-3.55301e-06
-1.32367e-05
-2.85313e-06
-1.36632e-05
-1.59756e-06
-1.18199e-05
-6.03129e-06
-1.25733e-06
6.32836e-06
-2.17179e-06
1.22041e-05
-2.43043e-06
1.39217e-05
-2.04032e-06
1.3417e-05
-1.1994e-06
1.18502e-05
-1.53112e-07
9.87115e-06
8.95247e-07
7.79519e-06
1.7993e-06
5.7536e-06
2.46138e-06
3.78184e-06
2.82018e-06
1.86493e-06
2.84289e-06
-3.76564e-08
2.52273e-06
-1.97702e-06
1.88136e-06
-4.0025e-06
9.77535e-07
-6.14494e-06
-7.58914e-08
-8.38805e-06
-1.08497e-06
-1.06172e-05
-1.75559e-06
-1.25305e-05
-1.77251e-06
-1.34896e-05
-1.06392e-06
-1.22803e-05
-6.60227e-06
-3.00785e-07
6.6388e-06
-4.38077e-07
1.21479e-05
1.82333e-07
1.31081e-05
1.56464e-06
1.20155e-05
3.34167e-06
1.01581e-05
5.16912e-06
8.1492e-06
6.81654e-06
6.23321e-06
8.1478e-06
4.47861e-06
9.08672e-06
2.87406e-06
9.59063e-06
1.37329e-06
9.63587e-06
-8.49327e-08
9.21216e-06
-1.56754e-06
8.32387e-06
-3.14093e-06
6.9999e-06
-4.86184e-06
5.31837e-06
-6.75791e-06
3.45766e-06
-8.78572e-06
1.76644e-06
-1.07456e-05
7.23506e-07
-1.21165e-05
3.61481e-07
-1.17138e-05
-6.67701e-06
2.30159e-06
6.15971e-06
3.73057e-06
1.06756e-05
5.57107e-06
1.08326e-05
8.06101e-06
9.43498e-06
1.07176e-05
7.63364e-06
1.31703e-05
5.89125e-06
1.52265e-05
4.35342e-06
1.68048e-05
3.03217e-06
1.78779e-05
1.88695e-06
1.84385e-05
8.59129e-07
1.84817e-05
-1.14777e-07
1.79988e-05
-1.09876e-06
1.69759e-05
-2.156e-06
1.54013e-05
-3.3466e-06
1.32885e-05
-4.71851e-06
1.07389e-05
-6.28039e-06
8.06192e-06
-7.93951e-06
5.82089e-06
-9.37106e-06
3.67417e-06
-9.6957e-06
-5.89359e-06
8.8828e-06
3.95666e-06
1.291e-05
6.62119e-06
1.59557e-05
6.42659e-06
1.91593e-05
5.40385e-06
2.21388e-05
4.24169e-06
2.46508e-05
3.18347e-06
2.66191e-05
2.29156e-06
2.80502e-05
1.5566e-06
2.89765e-05
9.43768e-07
2.94277e-05
4.11546e-07
2.9419e-05
-8.14686e-08
2.89465e-05
-5.75023e-07
2.79852e-05
-1.10778e-06
2.64904e-05
-1.71812e-06
2.44101e-05
-2.44157e-06
2.1734e-05
-3.29811e-06
1.86217e-05
-4.2622e-06
1.55768e-05
-5.19958e-06
1.11227e-05
-5.69571e-06
-3.66534e-06
2.58908e-05
3.19522e-05
3.46345e-05
3.69225e-05
3.87777e-05
4.01909e-05
4.12087e-05
4.18916e-05
4.22911e-05
4.2442e-05
4.23611e-05
4.20468e-05
4.14785e-05
4.06147e-05
3.93947e-05
3.77554e-05
3.56938e-05
3.35977e-05
2.84147e-05
)
;

boundaryField
{
    movingWall
    {
        type            calculated;
        value           uniform 0;
    }
    fixedWalls
    {
        type            calculated;
        value           uniform 0;
    }
    frontAndBack
    {
        type            empty;
        value           nonuniform List<scalar> 0();
    }
}


// ************************************************************************* //
