/*--------------------------------*- C++ -*----------------------------------*\
  =========                 |
  \\      /  F ield         | OpenFOAM: The Open Source CFD Toolbox
   \\    /   O peration     | Website:  https://openfoam.org
    \\  /    A nd           | Version:  10
     \\/     M anipulation  |
\*---------------------------------------------------------------------------*/
FoamFile
{
    format      ascii;
    class       volVectorField;
    location    "0.3";
    object      U;
}
// * * * * * * * * * * * * * * * * * * * * * * * * * * * * * * * * * * * * * //

dimensions      [0 1 -1 0 0 0 0];

internalField   nonuniform List<vector> 
400
(
(0.026711 0.0269784 0)
(0.044864 0.0204852 0)
(0.025262 0.0146565 0)
(0.0132781 0.0106459 0)
(0.00462378 0.00796768 0)
(-0.00198814 0.00608724 0)
(-0.00713087 0.00463393 0)
(-0.0110484 0.00338949 0)
(-0.0138308 0.00223817 0)
(-0.015513 0.00113767 0)
(-0.0161278 9.68164e-05 0)
(-0.0157197 -0.000858283 0)
(-0.0143832 -0.0016864 0)
(-0.0122975 -0.0023172 0)
(-0.00969206 -0.00267106 0)
(-0.00683741 -0.00269289 0)
(-0.00408922 -0.00236305 0)
(-0.00187571 -0.00170787 0)
(-0.000559702 -0.000846832 0)
(-0.000101606 -8.76477e-05 0)
(0.018629 0.0462197 0)
(0.0361971 0.0428157 0)
(0.0270507 0.0346391 0)
(0.0141581 0.0275501 0)
(0.00099422 0.0220142 0)
(-0.011103 0.0175937 0)
(-0.0215446 0.0137931 0)
(-0.0299917 0.0102769 0)
(-0.0362074 0.00686728 0)
(-0.0400353 0.00351578 0)
(-0.0414404 0.000284057 0)
(-0.0404971 -0.00270931 0)
(-0.037387 -0.00530683 0)
(-0.0324635 -0.0073016 0)
(-0.0262473 -0.00846776 0)
(-0.0193896 -0.00862371 0)
(-0.0126754 -0.00768075 0)
(-0.00698802 -0.0057024 0)
(-0.00309099 -0.00302707 0)
(-0.000868251 -0.000533782 0)
(0.010911 0.0294799 0)
(0.022177 0.0419691 0)
(0.0168859 0.0424866 0)
(0.0052812 0.0392124 0)
(-0.0088812 0.0346835 0)
(-0.0232936 0.0296568 0)
(-0.0365162 0.0242849 0)
(-0.0476103 0.0185955 0)
(-0.0559569 0.0126435 0)
(-0.0611586 0.00655148 0)
(-0.0630451 0.000535035 0)
(-0.0616554 -0.00511706 0)
(-0.0572118 -0.0100595 0)
(-0.0501658 -0.0139039 0)
(-0.0411978 -0.0162532 0)
(-0.0311869 -0.0167709 0)
(-0.0212087 -0.0152694 0)
(-0.0124804 -0.011826 0)
(-0.00611435 -0.00694788 0)
(-0.00185411 -0.00187136 0)
(0.00520158 0.0223313 0)
(0.0099579 0.041523 0)
(0.00451508 0.0494493 0)
(-0.00698216 0.0510516 0)
(-0.0217557 0.0487577 0)
(-0.0374593 0.0438721 0)
(-0.0523134 0.0371297 0)
(-0.0650264 0.0290289 0)
(-0.0747038 0.0199877 0)
(-0.0807506 0.0104194 0)
(-0.0828708 0.000795335 0)
(-0.0810397 -0.00835516 0)
(-0.075461 -0.0164434 0)
(-0.0666175 -0.0228323 0)
(-0.0552836 -0.026886 0)
(-0.0424969 -0.0280632 0)
(-0.0295531 -0.0260387 0)
(-0.0179582 -0.0208557 0)
(-0.00918737 -0.0131253 0)
(-0.00287294 -0.00425668 0)
(0.00116167 0.0200816 0)
(0.000368396 0.0441065 0)
(-0.00707456 0.0580506 0)
(-0.0197983 0.0641921 0)
(-0.0357034 0.064265 0)
(-0.052625 0.0596858 0)
(-0.0687207 0.051572 0)
(-0.0825626 0.04085 0)
(-0.0931277 0.0283286 0)
(-0.0997013 0.0147559 0)
(-0.101888 0.000905409 0)
(-0.0995996 -0.0124005 0)
(-0.0929979 -0.0242853 0)
(-0.0825466 -0.0338251 0)
(-0.0690509 -0.0400971 0)
(-0.0536533 -0.0422892 0)
(-0.0378428 -0.0398564 0)
(-0.0234257 -0.0327209 0)
(-0.0122579 -0.0215086 0)
(-0.00389053 -0.00764717 0)
(-0.00174481 0.0210062 0)
(-0.00705621 0.0501149 0)
(-0.0172119 0.069289 0)
(-0.0320587 0.0793291 0)
(-0.0496885 0.0813919 0)
(-0.0680488 0.076888 0)
(-0.085335 0.0671967 0)
(-0.10011 0.0535982 0)
(-0.111338 0.0372707 0)
(-0.11827 0.0193025 0)
(-0.120453 0.000772283 0)
(-0.117737 -0.0171974 0)
(-0.110226 -0.0334206 0)
(-0.0983303 -0.0466529 0)
(-0.0828372 -0.05564 0)
(-0.0649458 -0.0592347 0)
(-0.0463129 -0.0565807 0)
(-0.0290576 -0.047359 0)
(-0.0154314 -0.0320724 0)
(-0.00493957 -0.0120392 0)
(-0.00396121 0.0241972 0)
(-0.0130198 0.0593569 0)
(-0.0260695 0.0834866 0)
(-0.0434854 0.0968499 0)
(-0.0632127 0.100352 0)
(-0.0831859 0.0954719 0)
(-0.10166 0.083841 0)
(-0.117259 0.0670525 0)
(-0.129008 0.0466158 0)
(-0.136203 0.0239403 0)
(-0.138379 0.000390506 0)
(-0.135335 -0.022633 0)
(-0.127099 -0.0436462 0)
(-0.113993 -0.0610726 0)
(-0.0967392 -0.0732868 0)
(-0.0765386 -0.0787335 0)
(-0.0551745 -0.0761343 0)
(-0.0350659 -0.0647796 0)
(-0.0188762 -0.0448726 0)
(-0.00608662 -0.0174869 0)
(-0.00579682 0.0291792 0)
(-0.0181205 0.0715821 0)
(-0.0340221 0.10069 0)
(-0.05411 0.116902 0)
(-0.0760099 0.121235 0)
(-0.0975567 0.115411 0)
(-0.117078 0.101383 0)
(-0.133316 0.0810616 0)
(-0.145415 0.0562488 0)
(-0.152772 0.0286369 0)
(-0.154967 -0.00016244 0)
(-0.151764 -0.0285154 0)
(-0.143097 -0.0546787 0)
(-0.12916 -0.0767605 0)
(-0.110546 -0.0927405 0)
(-0.0883872 -0.100579 0)
(-0.0645229 -0.0984419 0)
(-0.0416178 -0.0850377 0)
(-0.0227557 -0.0600439 0)
(-0.0074017 -0.0240853 0)
(-0.00745848 0.0357277 0)
(-0.0227978 0.0865918 0)
(-0.0414074 0.12079 0)
(-0.0639969 0.139395 0)
(-0.0878224 0.1439 0)
(-0.110598 0.136495 0)
(-0.130763 0.119572 0)
(-0.147257 0.0953925 0)
(-0.159402 0.0660222 0)
(-0.16675 0.0333768 0)
(-0.168976 -0.000746847 0)
(-0.165838 -0.0345505 0)
(-0.157164 -0.0660999 0)
(-0.142973 -0.0932348 0)
(-0.123652 -0.113542 0)
(-0.100156 -0.124431 0)
(-0.0742639 -0.123353 0)
(-0.0487792 -0.108189 0)
(-0.0271768 -0.0777894 0)
(-0.00892989 -0.031992 0)
(-0.00908262 0.0437569 0)
(-0.0273504 0.10422 0)
(-0.0484424 0.143536 0)
(-0.0730951 0.163969 0)
(-0.0982343 0.167887 0)
(-0.12151 0.158204 0)
(-0.141559 0.137889 0)
(-0.157628 0.109607 0)
(-0.1693 0.0756567 0)
(-0.176333 0.0380946 0)
(-0.178549 -0.00119059 0)
(-0.175737 -0.0403327 0)
(-0.167619 -0.0773076 0)
(-0.153994 -0.109771 0)
(-0.134945 -0.134955 0)
(-0.111109 -0.149671 0)
(-0.0840259 -0.150492 0)
(-0.0564556 -0.134165 0)
(-0.0321616 -0.0982969 0)
(-0.0106844 -0.0414236 0)
(-0.0107522 0.0532623 0)
(-0.0319483 0.124289 0)
(-0.0551753 0.168496 0)
(-0.0811286 0.189938 0)
(-0.106525 0.192331 0)
(-0.129103 0.179603 0)
(-0.147833 0.155441 0)
(-0.162414 0.122955 0)
(-0.172807 0.0846418 0)
(-0.179036 0.0425954 0)
(-0.181116 -0.0013414 0)
(-0.178903 -0.0453676 0)
(-0.172034 -0.0875011 0)
(-0.160054 -0.125339 0)
(-0.142646 -0.155847 0)
(-0.119951 -0.17524 0)
(-0.0930207 -0.179067 0)
(-0.0642921 -0.162586 0)
(-0.0376108 -0.121598 0)
(-0.0126458 -0.0525878 0)
(-0.0124924 0.0642829 0)
(-0.0366081 0.14654 0)
(-0.0614069 0.194957 0)
(-0.0874597 0.216178 0)
(-0.111492 0.215845 0)
(-0.1316 0.199233 0)
(-0.147296 0.170869 0)
(-0.158895 0.134298 0)
(-0.166864 0.0921601 0)
(-0.171584 0.0464673 0)
(-0.173292 -0.00114914 0)
(-0.171939 -0.0491337 0)
(-0.167106 -0.0957177 0)
(-0.158087 -0.138606 0)
(-0.144089 -0.174643 0)
(-0.124584 -0.19953 0)
(-0.0998207 -0.207711 0)
(-0.0714967 -0.192597 0)
(-0.0431846 -0.147452 0)
(-0.0147194 -0.0656164 0)
(-0.0142284 0.0768503 0)
(-0.0410828 0.170514 0)
(-0.0665069 0.221772 0)
(-0.0908345 0.240973 0)
(-0.111156 0.236405 0)
(-0.12635 0.215044 0)
(-0.136757 0.182314 0)
(-0.143467 0.142116 0)
(-0.147558 0.0971028 0)
(-0.149837 0.0490645 0)
(-0.150809 -0.000729659 0)
(-0.150534 -0.0511571 0)
(-0.148566 -0.100874 0)
(-0.143979 -0.147917 0)
(-0.135505 -0.18924 0)
(-0.121814 -0.220221 0)
(-0.102025 -0.234245 0)
(-0.0765319 -0.222591 0)
(-0.0480528 -0.175123 0)
(-0.016626 -0.0804683 0)
(-0.0156618 0.0908853 0)
(-0.0445586 0.19534 0)
(-0.0689912 0.247118 0)
(-0.0888858 0.261832 0)
(-0.102267 0.251262 0)
(-0.109394 0.224394 0)
(-0.111784 0.187481 0)
(-0.11143 0.144587 0)
(-0.110037 0.0981834 0)
(-0.108828 0.0496471 0)
(-0.108571 -0.000261082 0)
(-0.109471 -0.0509968 0)
(-0.11111 -0.10183 0)
(-0.112432 -0.151381 0)
(-0.111775 -0.197028 0)
(-0.106993 -0.23417 0)
(-0.0957994 -0.255398 0)
(-0.0766325 -0.249787 0)
(-0.0504946 -0.202962 0)
(-0.0177345 -0.0967334 0)
(-0.0159611 0.10597 0)
(-0.0449369 0.219342 0)
(-0.0656203 0.26812 0)
(-0.0771912 0.275267 0)
(-0.0794702 0.256924 0)
(-0.0748336 0.224187 0)
(-0.0663045 0.183862 0)
(-0.0567564 0.139817 0)
(-0.0484141 0.0940661 0)
(-0.0428021 0.047407 0)
(-0.0408481 -3.06492e-05 0)
(-0.0428845 -0.0483726 0)
(-0.0486051 -0.0976208 0)
(-0.0569982 -0.147181 0)
(-0.0662343 -0.195193 0)
(-0.0735381 -0.237572 0)
(-0.075156 -0.266701 0)
(-0.0669643 -0.269845 0)
(-0.0471609 -0.227902 0)
(-0.0167416 -0.113324 0)
(-0.0130311 0.12084 0)
(-0.0372622 0.239271 0)
(-0.0496092 0.280255 0)
(-0.0476081 0.276588 0)
(-0.0340046 0.249325 0)
(-0.0139713 0.211255 0)
(0.00784682 0.169172 0)
(0.0279631 0.126276 0)
(0.0440088 0.0837786 0)
(0.0544466 0.041757 0)
(0.0583606 -0.000319846 0)
(0.0553551 -0.0432332 0)
(0.045554 -0.0877065 0)
(0.0297006 -0.134002 0)
(0.0094008 -0.181273 0)
(-0.0124365 -0.226499 0)
(-0.0309622 -0.262769 0)
(-0.0392613 -0.276684 0)
(-0.0316391 -0.244894 0)
(-0.0109177 -0.127927 0)
(-0.00170582 0.132294 0)
(-0.0103256 0.248894 0)
(-0.0071975 0.276614 0)
(0.0144908 0.26009 0)
(0.0480947 0.224685 0)
(0.0855721 0.183591 0)
(0.121193 0.142635 0)
(0.151469 0.103868 0)
(0.174443 0.0674949 0)
(0.189026 0.0328401 0)
(0.194599 -0.00118641 0)
(0.190835 -0.0358477 0)
(0.177651 -0.0723934 0)
(0.155304 -0.111796 0)
(0.124692 -0.154249 0)
(0.0880427 -0.19819 0)
(0.0502637 -0.238452 0)
(0.0203941 -0.262899 0)
(0.00854611 -0.246318 0)
(0.00591314 -0.136164 0)
(0.0313823 0.133258 0)
(0.0606811 0.237023 0)
(0.0885417 0.247709 0)
(0.134301 0.220531 0)
(0.188139 0.181637 0)
(0.240563 0.142377 0)
(0.28625 0.106693 0)
(0.32281 0.0752759 0)
(0.349382 0.0474675 0)
(0.365736 0.0220913 0)
(0.371803 -0.0022109 0)
(0.367465 -0.0268539 0)
(0.352486 -0.053244 0)
(0.326552 -0.082678 0)
(0.289502 -0.116068 0)
(0.242037 -0.153239 0)
(0.187517 -0.191373 0)
(0.13496 -0.22176 0)
(0.0978753 -0.222236 0)
(0.0490916 -0.130917 0)
(0.125749 0.113131 0)
(0.229563 0.19 0)
(0.286835 0.185596 0)
(0.351395 0.156869 0)
(0.414978 0.123708 0)
(0.470575 0.0932726 0)
(0.515459 0.0674439 0)
(0.549305 0.046011 0)
(0.572702 0.0280107 0)
(0.586358 0.0122738 0)
(0.590752 -0.00238019 0)
(0.58601 -0.0170967 0)
(0.57185 -0.032996 0)
(0.547559 -0.0511859 0)
(0.512058 -0.0726726 0)
(0.464347 -0.0979764 0)
(0.405013 -0.126207 0)
(0.339857 -0.153082 0)
(0.283216 -0.165592 0)
(0.161693 -0.104827 0)
(0.425315 0.0451358 0)
(0.610319 0.0748482 0)
(0.667769 0.0714678 0)
(0.71761 0.0592853 0)
(0.75929 0.0459593 0)
(0.791817 0.0340663 0)
(0.815818 0.0242183 0)
(0.832529 0.0162531 0)
(0.843133 0.00974001 0)
(0.84851 0.004188 0)
(0.849172 -0.000878553 0)
(0.845272 -0.00590426 0)
(0.836601 -0.0113152 0)
(0.822541 -0.017539 0)
(0.802046 -0.0249902 0)
(0.773744 -0.0339481 0)
(0.73647 -0.044281 0)
(0.691281 -0.054901 0)
(0.652628 -0.0622365 0)
(0.483958 -0.0417868 0)
)
;

boundaryField
{
    movingWall
    {
        type            fixedValue;
        value           uniform (1 0 0);
    }
    fixedWalls
    {
        type            noSlip;
    }
    frontAndBack
    {
        type            empty;
    }
}


// ************************************************************************* //
